 *******************************************************************************
 **                                                                           **
 **                              MOPAC v22.1.0                                **
 **                                                                           **
 *******************************************************************************
 **          Digital Object Identifier (DOI): 10.5281/zenodo.6511958          **
 **    Visit the DOI location for information on how to cite this program.    **
 *******************************************************************************

                              PM7 CALCULATION RESULTS

 *******************************************************************************
 *  CALCULATION DONE:                                Wed Jan 31 16:41:14 2024  *
 *  PM7        - The PM7 Hamiltonian to be used
 *  NOOPT      - DO NOT OPTIMIZE ANY COORDINATES
 *
 *
 *
 *                 CHARGE ON SYSTEM = 0
 *
 *
 *
 *  T=         - A TIME OF 172800.0 SECONDS REQUESTED
 *  DUMP=N     - RESTART FILE WRITTEN EVERY 7200.0 SECONDS REQUESTED
 *******************************************************************************
PM7 CHARGE=0 NOOPT


   ATOM   CHEMICAL          X               Y               Z
  NUMBER   SYMBOL      (ANGSTROMS)     (ANGSTROMS)     (ANGSTROMS)

     1       C         17.76606700     14.46125600     21.22974000   
     2       C          8.44375600     23.78356700      8.85776000   
     3       C          2.84026000      5.73106700     21.64374400   
     4       C         21.64374400      2.84026000      5.73106700   
     5       C         21.22974000     17.76606700     14.46125600   
     6       C         14.46125600     21.22974000     17.76606700   
     7       C          5.73106700     21.64374400      2.84026000   
     8       C         20.47875600     12.32143300     15.21224000   
     9       C          0.28643300     20.89276000      3.59124400   
    10       C          3.59124400      0.28643300     20.89276000   
    11       C         20.89276000      3.59124400      0.28643300   
    12       C         12.32143300     15.21224000     20.47875600   
    13       C         15.21224000     20.47875600     12.32143300   
    14       C          9.60874400      9.19474000     18.33893300   
    15       C          6.30393300      2.42625600     14.87526000   
    16       C         18.33893300      9.60874400      9.19474000   
    17       C         14.87526000      6.30393300      2.42625600   
    18       C          9.19474000     18.33893300      9.60874400   
    19       C          2.42625600     14.87526000      6.30393300   
    20       C         23.78356700      8.85776000      8.44375600   
    21       C          3.17724000     15.62624400     11.74856700   
    22       C         15.62624400     11.74856700      3.17724000   
    23       C          8.85776000      8.44375600     23.78356700   
    24       C         11.74856700      3.17724000     15.62624400   
    25       C         18.94068300     14.63696700     20.42098800   
    26       C          8.61946700      0.88818300      9.66651200   
    27       C          3.64901200      6.90568300     21.46803300   
    28       C         21.46803300      3.64901200      6.90568300   
    29       C         20.42098800     18.94068300     14.63696700   
    30       C         14.63696700     20.42098800     18.94068300   
    31       C          6.90568300     21.46803300      3.64901200   
    32       C         20.65446700     11.14681700     14.40348800   
    33       C         23.18181700     21.70151200      3.41553300   
    34       C          3.41553300     23.18181700     21.70151200   
    35       C         21.70151200      3.41553300     23.18181700   
    36       C         11.14681700     14.40348800     20.65446700   
    37       C         14.40348800     20.65446700     11.14681700   
    38       C          9.43303300      8.38598800     17.16431700   
    39       C          5.12931700      2.60196700     15.68401200   
    40       C         17.16431700      9.43303300      8.38598800   
    41       C         15.68401200      5.12931700      2.60196700   
    42       C          8.38598800     17.16431700      9.43303300   
    43       C          2.60196700     15.68401200      5.12931700   
    44       C          0.88818300      9.66651200      8.61946700   
    45       C          2.36848800     15.45053300     12.92318300   
    46       C         15.45053300     12.92318300      2.36848800   
    47       C          9.66651200      8.61946700      0.88818300   
    48       C         12.92318300      2.36848800     15.45053300   
    49       C         14.79342200     17.30392300     20.81332900   
    50       C         11.28642300     20.81092200      9.27417100   
    51       C          3.25667100      2.75842200     18.80107700   
    52       C         18.80107700      3.25667100      2.75842200   
    53       C         20.81332900     14.79342200     17.30392300   
    54       C         17.30392300     20.81332900     14.79342200   
    55       C          2.75842200     18.80107700      3.25667100   
    56       C         23.32142300     15.29407800     14.79582900   
    57       C          3.25907800     21.30917100      0.74857700   
    58       C          0.74857700      3.25907800     21.30917100   
    59       C         21.30917100      0.74857700      3.25907800   
    60       C         15.29407800     14.79582900     23.32142300   
    61       C         14.79582900     23.32142300     15.29407800   
    62       C          6.76607700      8.77832900     21.31157800   
    63       C          9.27657800      5.26892300     15.29167100   
    64       C         21.31157800      6.76607700      8.77832900   
    65       C         15.29167100      9.27657800      5.26892300   
    66       C          8.77832900     21.31157800      6.76607700   
    67       C          5.26892300     15.29167100      9.27657800   
    68       C         20.81092200      9.27417100     11.28642300   
    69       C          2.76082900     12.78357700      8.77592200   
    70       C         12.78357700      8.77592200      2.76082900   
    71       C          9.27417100     11.28642300     20.81092200   
    72       C          8.77592200      2.76082900     12.78357700   
    73       C         15.55884800     15.38313700     22.14199300   
    74       C          9.36563700     21.57634800      7.94550700   
    75       C          1.92800700      3.52384800     20.72186300   
    76       C         20.72186300      1.92800700      3.52384800   
    77       C         22.14199300     15.55884800     15.38313700   
    78       C         15.38313700     22.14199300     15.55884800   
    79       C          3.52384800     20.72186300      1.92800700   
    80       C         21.40063700     14.52865200     16.12449300   
    81       C          2.49365200     19.98050700      2.66936300   
    82       C          2.66936300      2.49365200     19.98050700   
    83       C         19.98050700      2.66936300      2.49365200   
    84       C         14.52865200     16.12449300     21.40063700   
    85       C         16.12449300     21.40063700     14.52865200   
    86       C          8.68686300     10.10699300     20.54615200   
    87       C          8.51115200      3.34813700     13.96300700   
    88       C         20.54615200      8.68686300     10.10699300   
    89       C         13.96300700      8.51115200      3.34813700   
    90       C         10.10699300     20.54615200      8.68686300   
    91       C          3.34813700     13.96300700      8.51115200   
    92       C         21.57634800      7.94550700      9.36563700   
    93       C          4.08949300     14.70436300      9.54134800   
    94       C         14.70436300      9.54134800      4.08949300   
    95       C          7.94550700      9.36563700     21.57634800   
    96       C          9.54134800      4.08949300     14.70436300   
    97       C         19.21748800     19.98050700     17.98510400   
    98       C         13.96300700      1.16498800     12.10239600   
    99       C          6.08489600      7.18248800     16.12449300   
   100       C         16.12449300      6.08489600      7.18248800   
   101       C         17.98510400     19.21748800     19.98050700   
   102       C         19.98050700     17.98510400     19.21748800   
   103       C          7.18248800     16.12449300      6.08489600   
   104       C          1.92800700     10.87001200     11.96760400   
   105       C         22.90501200      0.06739600     22.14199300   
   106       C         22.14199300     22.90501200      0.06739600   
   107       C          0.06739600     22.14199300     22.90501200   
   108       C         10.87001200     11.96760400      1.92800700   
   109       C         11.96760400      1.92800700     10.87001200   
   110       C          4.08949300      5.95010400     16.88751200   
   111       C          4.85251200      7.94550700     18.11989600   
   112       C         16.88751200      4.08949300      5.95010400   
   113       C         18.11989600      4.85251200      7.94550700   
   114       C          5.95010400     16.88751200      4.08949300   
   115       C          7.94550700     18.11989600      4.85251200   
   116       C          1.16498800     12.10239600     13.96300700   
   117       C         24.00260400     10.10699300     13.19998800   
   118       C         10.10699300     13.19998800     24.00260400   
   119       C         12.10239600     13.96300700      1.16498800   
   120       C         13.19998800     24.00260400     10.10699300   
   121       C         18.45687600     16.94528000     20.56300100   
   122       C         10.92778000      0.40437600      9.52449900   
   123       C          3.50699900      6.42187600     19.15972000   
   124       C         19.15972000      3.50699900      6.42187600   
   125       C         20.56300100     18.45687600     16.94528000   
   126       C         16.94528000     20.56300100     18.45687600   
   127       C          6.42187600     19.15972000      3.50699900   
   128       C         22.96278000     11.63062400     14.54550100   
   129       C         23.66562400     21.55949900      1.10722000   
   130       C          1.10722000     23.66562400     21.55949900   
   131       C         21.55949900      1.10722000     23.66562400   
   132       C         11.63062400     14.54550100     22.96278000   
   133       C         14.54550100     22.96278000     11.63062400   
   134       C          7.12472000      8.52800100     17.64812400   
   135       C          5.61312400      4.91028000     15.54199900   
   136       C         17.64812400      7.12472000      8.52800100   
   137       C         15.54199900      5.61312400      4.91028000   
   138       C          8.52800100     17.64812400      7.12472000   
   139       C          4.91028000     15.54199900      5.61312400   
   140       C          0.40437600      9.52449900     10.92778000   
   141       C          2.51050100     13.14222000     12.43937600   
   142       C         13.14222000     12.43937600      2.51050100   
   143       C          9.52449900     10.92778000      0.40437600   
   144       C         12.43937600      2.51050100     13.14222000   
   145       C         16.54812500     19.02011400     20.18991600   
   146       C         13.00261400     22.56562500      9.89758400   
   147       C          3.88008400      4.51312500     17.08488600   
   148       C         17.08488600      3.88008400      4.51312500   
   149       C         20.18991600     16.54812500     19.02011400   
   150       C         19.02011400     20.18991600     16.54812500   
   151       C          4.51312500     17.08488600      3.88008400   
   152       C          0.96761400     13.53937500     14.17241600   
   153       C          1.50437500     21.93258400     23.10238600   
   154       C         23.10238600      1.50437500     21.93258400   
   155       C         21.93258400     23.10238600      1.50437500   
   156       C         13.53937500     14.17241600      0.96761400   
   157       C         14.17241600      0.96761400     13.53937500   
   158       C          5.04988600      8.15491600     19.55687500   
   159       C          7.52187500      6.98511400     15.91508400   
   160       C         19.55687500      5.04988600      8.15491600   
   161       C         15.91508400      7.52187500      6.98511400   
   162       C          8.15491600     19.55687500      5.04988600   
   163       C          6.98511400     15.91508400      7.52187500   
   164       C         22.56562500      9.89758400     13.00261400   
   165       C          2.13741600     11.06738600     10.53062500   
   166       C         11.06738600     10.53062500      2.13741600   
   167       C          9.89758400     13.00261400     22.56562500   
   168       C         10.53062500      2.13741600     11.06738600   
   169       C         23.22514300     21.99035200     23.90873100   
   170       C         15.97285200      5.17264300      6.17876900   
   171       C          0.16126900     11.19014300     14.11464800   
   172       C         14.11464800      0.16126900     11.19014300   
   173       C         23.90873100     23.22514300     21.99035200   
   174       C         21.99035200     23.90873100     23.22514300   
   175       C         11.19014300     14.11464800      0.16126900   
   176       C          3.93785200      6.86235700     17.89123100   
   177       C         18.89735700     18.21376900     20.13214800   
   178       C         20.13214800     18.89735700     18.21376900   
   179       C         18.21376900     20.13214800     18.89735700   
   180       C          6.86235700     17.89123100      3.93785200   
   181       C         17.89123100      3.93785200      6.86235700   
   182       C          2.07964800     11.87373100     12.87985700   
   183       C          0.84485700      9.95535200     12.19626900   
   184       C         12.87985700      2.07964800     11.87373100   
   185       C         12.19626900      0.84485700      9.95535200   
   186       C         11.87373100     12.87985700      2.07964800   
   187       C          9.95535200     12.19626900      0.84485700   
   188       C          5.17264300      6.17876900     15.97285200   
   189       C          5.85623100      8.09714800     17.20764300   
   190       C          8.09714800     17.20764300      5.85623100   
   191       C          6.17876900     15.97285200      5.17264300   
   192       C         17.20764300      5.85623100      8.09714800   
   193       C         17.16672400     16.79123200     21.00829600   
   194       C         10.77373200     23.18422400      9.07920400   
   195       C          3.06170400      5.13172400     19.31376800   
   196       C         19.31376800      3.06170400      5.13172400   
   197       C         21.00829600     17.16672400     16.79123200   
   198       C         16.79123200     21.00829600     17.16672400   
   199       C          5.13172400     19.31376800      3.06170400   
   200       C         22.80873200     12.92077600     14.99079600   
   201       C          0.88577600     21.11420400      1.26126800   
   202       C          1.26126800      0.88577600     21.11420400   
   203       C         21.11420400      1.26126800      0.88577600   
   204       C         12.92077600     14.99079600     22.80873200   
   205       C         14.99079600     22.80873200     12.92077600   
   206       C          7.27876800      8.97329600     18.93827600   
   207       C          6.90327600      4.75623200     15.09670400   
   208       C         18.93827600      7.27876800      8.97329600   
   209       C         15.09670400      6.90327600      4.75623200   
   210       C          8.97329600     18.93827600      7.27876800   
   211       C          4.75623200     15.09670400      6.90327600   
   212       C         23.18422400      9.07920400     10.77373200   
   213       C          2.95579600     13.29626800     11.14922400   
   214       C         13.29626800     11.14922400      2.95579600   
   215       C          9.07920400     10.77373200     23.18422400   
   216       C         11.14922400      2.95579600     13.29626800   
   217       C         19.29932600     15.89101400     20.03346100   
   218       C          9.87351400      1.24682600     10.05403900   
   219       C          4.03653900      7.26432600     20.21398600   
   220       C         20.21398600      4.03653900      7.26432600   
   221       C         20.03346100     19.29932600     15.89101400   
   222       C         15.89101400     20.03346100     19.29932600   
   223       C          7.26432600     20.21398600      4.03653900   
   224       C         21.90851400     10.78817400     14.01596100   
   225       C         22.82317400     22.08903900      2.16148600   
   226       C          2.16148600     22.82317400     22.08903900   
   227       C         22.08903900      2.16148600     22.82317400   
   228       C         10.78817400     14.01596100     21.90851400   
   229       C         14.01596100     21.90851400     10.78817400   
   230       C          8.17898600      7.99846100     16.80567400   
   231       C          4.77067400      3.85601400     16.07153900   
   232       C         16.80567400      8.17898600      7.99846100   
   233       C         16.07153900      4.77067400      3.85601400   
   234       C          7.99846100     16.80567400      8.17898600   
   235       C          3.85601400     16.07153900      4.77067400   
   236       C          1.24682600     10.05403900      9.87351400   
   237       C          1.98096100     14.19648600     13.28182600   
   238       C         14.19648600     13.28182600      1.98096100   
   239       C         10.05403900      9.87351400      1.24682600   
   240       C         13.28182600      1.98096100     14.19648600   
   241       C         16.88029100     15.47701000     21.48728900   
   242       C          9.45951000     22.89779100      8.60021100   
   243       C          2.58271100      4.84529100     20.62799000   
   244       C         20.62799000      2.58271100      4.84529100   
   245       C         21.48728900     16.88029100     15.47701000   
   246       C         15.47701000     21.48728900     16.88029100   
   247       C          4.84529100     20.62799000      2.58271100   
   248       C         21.49451000     13.20720900     15.46978900   
   249       C          1.17220900     20.63521100      2.57549000   
   250       C          2.57549000      1.17220900     20.63521100   
   251       C         20.63521100      2.57549000      1.17220900   
   252       C         13.20720900     15.46978900     21.49451000   
   253       C         15.46978900     21.49451000     13.20720900   
   254       C          8.59299000      9.45228900     19.22470900   
   255       C          7.18970900      3.44201000     14.61771100   
   256       C         19.22470900      8.59299000      9.45228900   
   257       C         14.61771100      7.18970900      3.44201000   
   258       C          9.45228900     19.22470900      8.59299000   
   259       C          3.44201000     14.61771100      7.18970900   
   260       C         22.89779100      8.60021100      9.45951000   
   261       C          3.43478900     14.61049000     10.86279100   
   262       C         14.61049000     10.86279100      3.43478900   
   263       C          8.60021100      9.45951000     22.89779100   
   264       C         10.86279100      3.43478900     14.61049000   
   265       B         16.16300500     17.81420700     20.72908400   
   266       B         11.79670700     22.18050500      9.35841600   
   267       B          3.34091600      4.12800500     18.29079300   
   268       B         18.29079300      3.34091600      4.12800500   
   269       B         20.72908400     16.16300500     17.81420700   
   270       B         17.81420700     20.72908400     16.16300500   
   271       B          4.12800500     18.29079300      3.34091600   
   272       B         23.83170700     13.92449500     14.71158400   
   273       B          1.88949500     21.39341600      0.23829300   
   274       B          0.23829300      1.88949500     21.39341600   
   275       B         21.39341600      0.23829300      1.88949500   
   276       B         13.92449500     14.71158400     23.83170700   
   277       B         14.71158400     23.83170700     13.92449500   
   278       B          6.25579300      8.69408400     19.94199500   
   279       B          7.90699500      5.77920700     15.37591600   
   280       B         19.94199500      6.25579300      8.69408400   
   281       B         15.37591600      7.90699500      5.77920700   
   282       B          8.69408400     19.94199500      6.25579300   
   283       B          5.77920700     15.37591600      7.90699500   
   284       B         22.18050500      9.35841600     11.79670700   
   285       B          2.67658400     12.27329300     10.14550500   
   286       B         12.27329300     10.14550500      2.67658400   
   287       B          9.35841600     11.79670700     22.18050500   
   288       B         10.14550500      2.67658400     12.27329300   
   289       H         13.45031600     21.59801100     17.55184400   
   290       H         15.58051100     19.46781600     12.53565600   
   291       H          6.51815600      1.41531600     14.50698900   
   292       H         14.50698900      6.51815600      1.41531600   
   293       H         17.55184400     13.45031600     21.59801100   
   294       H         21.59801100     17.55184400     13.45031600   
   295       H          1.41531600     14.50698900      6.51815600   
   296       H          3.54551100     16.63718400     11.53434400   
   297       H          4.60218400      0.50065600     20.52448900   
   298       H         20.52448900      4.60218400      0.50065600   
   299       H          0.50065600     20.52448900      4.60218400   
   300       H         16.63718400     11.53434400      3.54551100   
   301       H         11.53434400      3.54551100     16.63718400   
   302       H          2.47198900      5.51684400     22.65468400   
   303       H         10.61968400      9.56301100     18.55315600   
   304       H         22.65468400      2.47198900      5.51684400   
   305       H         18.55315600     10.61968400      9.56301100   
   306       H          5.51684400     22.65468400      2.47198900   
   307       H          9.56301100     18.55315600     10.61968400   
   308       H         19.46781600     12.53565600     15.58051100   
   309       H         23.56934400      8.48948900      7.43281600   
   310       H          8.48948900      7.43281600     23.56934400   
   311       H         12.53565600     15.58051100     19.46781600   
   312       H          7.43281600     23.56934400      8.48948900   
   313       H         13.74878400     20.12733400     19.49910700   
   314       H         14.10983400     19.76628400     10.58839300   
   315       H          4.57089300      1.71378400     15.97766600   
   316       H         15.97766600      4.57089300      1.71378400   
   317       H         19.49910700     13.74878400     20.12733400   
   318       H         20.12733400     19.49910700     13.74878400   
   319       H          1.71378400     15.97766600      4.57089300   
   320       H          2.07483400     16.33871600     13.48160700   
   321       H          4.30371600     22.62339300     21.99516600   
   322       H         21.99516600      4.30371600     22.62339300   
   323       H         22.62339300     21.99516600      4.30371600   
   324       H         16.33871600     13.48160700      2.07483400   
   325       H         13.48160700      2.07483400     16.33871600   
   326       H          3.94266600      7.46410700     22.35621600   
   327       H         10.32121600      8.09233400     16.60589300   
   328       H         22.35621600      3.94266600      7.46410700   
   329       H         16.60589300     10.32121600      8.09233400   
   330       H          7.46410700     22.35621600      3.94266600   
   331       H          8.09233400     16.60589300     10.32121600   
   332       H         19.76628400     10.58839300     14.10983400   
   333       H          1.44660700      9.96016600      7.73128400   
   334       H          9.96016600      7.73128400      1.44660700   
   335       H         10.58839300     14.10983400     19.76628400   
   336       H          7.73128400      1.44660700      9.96016600   
   337       H         14.00392600     17.89845200     20.33674300   
   338       H         11.88095200     20.02142600      9.75075700   
   339       H          3.73325700      1.96892600     18.20654800   
   340       H         18.20654800      3.73325700      1.96892600   
   341       H         20.33674300     14.00392600     17.89845200   
   342       H         17.89845200     20.33674300     14.00392600   
   343       H          1.96892600     18.20654800      3.73325700   
   344       H         23.91595200     16.08357400     14.31924300   
   345       H          4.04857400     21.78575700      0.15404800   
   346       H          0.15404800      4.04857400     21.78575700   
   347       H         21.78575700      0.15404800      4.04857400   
   348       H         16.08357400     14.31924300     23.91595200   
   349       H         14.31924300     23.91595200     16.08357400   
   350       H          6.17154800      8.30174300     22.10107400   
   351       H         10.06607400      5.86345200     15.76825700   
   352       H         22.10107400      6.17154800      8.30174300   
   353       H         15.76825700     10.06607400      5.86345200   
   354       H          8.30174300     22.10107400      6.17154800   
   355       H          5.86345200     15.76825700     10.06607400   
   356       H         20.02142600      9.75075700     11.88095200   
   357       H          2.28424300     12.18904800      7.98642600   
   358       H         12.18904800      7.98642600      2.28424300   
   359       H          9.75075700     11.88095200     20.02142600   
   360       H          7.98642600      2.28424300     12.18904800   
   361      Tv         24.07000000      0.00000000      0.00000000   
   362      Tv          0.00000000     24.07000000      0.00000000   
   363      Tv          0.00000000      0.00000000     24.07000000   


                   THE SYSTEM IS A SOLID


                UNIT CELL TRANSLATION VECTORS

              X                Y              Z
    T1 =    24.0700000      0.0000000      0.0000000
    T2 =     0.0000000     24.0700000      0.0000000
    T3 =     0.0000000      0.0000000     24.0700000


          CARTESIAN COORDINATES 

    NO.       ATOM           X           Y           Z

     1         C         17.7661     14.4613     21.2297
     2         C          8.4438     23.7836      8.8578
     3         C          2.8403      5.7311     21.6437
     4         C         21.6437      2.8403      5.7311
     5         C         21.2297     17.7661     14.4613
     6         C         14.4613     21.2297     17.7661
     7         C          5.7311     21.6437      2.8403
     8         C         20.4788     12.3214     15.2122
     9         C          0.2864     20.8928      3.5912
    10         C          3.5912      0.2864     20.8928
    11         C         20.8928      3.5912      0.2864
    12         C         12.3214     15.2122     20.4788
    13         C         15.2122     20.4788     12.3214
    14         C          9.6087      9.1947     18.3389
    15         C          6.3039      2.4263     14.8753
    16         C         18.3389      9.6087      9.1947
    17         C         14.8753      6.3039      2.4263
    18         C          9.1947     18.3389      9.6087
    19         C          2.4263     14.8753      6.3039
    20         C         23.7836      8.8578      8.4438
    21         C          3.1772     15.6262     11.7486
    22         C         15.6262     11.7486      3.1772
    23         C          8.8578      8.4438     23.7836
    24         C         11.7486      3.1772     15.6262
    25         C         18.9407     14.6370     20.4210
    26         C          8.6195      0.8882      9.6665
    27         C          3.6490      6.9057     21.4680
    28         C         21.4680      3.6490      6.9057
    29         C         20.4210     18.9407     14.6370
    30         C         14.6370     20.4210     18.9407
    31         C          6.9057     21.4680      3.6490
    32         C         20.6545     11.1468     14.4035
    33         C         23.1818     21.7015      3.4155
    34         C          3.4155     23.1818     21.7015
    35         C         21.7015      3.4155     23.1818
    36         C         11.1468     14.4035     20.6545
    37         C         14.4035     20.6545     11.1468
    38         C          9.4330      8.3860     17.1643
    39         C          5.1293      2.6020     15.6840
    40         C         17.1643      9.4330      8.3860
    41         C         15.6840      5.1293      2.6020
    42         C          8.3860     17.1643      9.4330
    43         C          2.6020     15.6840      5.1293
    44         C          0.8882      9.6665      8.6195
    45         C          2.3685     15.4505     12.9232
    46         C         15.4505     12.9232      2.3685
    47         C          9.6665      8.6195      0.8882
    48         C         12.9232      2.3685     15.4505
    49         C         14.7934     17.3039     20.8133
    50         C         11.2864     20.8109      9.2742
    51         C          3.2567      2.7584     18.8011
    52         C         18.8011      3.2567      2.7584
    53         C         20.8133     14.7934     17.3039
    54         C         17.3039     20.8133     14.7934
    55         C          2.7584     18.8011      3.2567
    56         C         23.3214     15.2941     14.7958
    57         C          3.2591     21.3092      0.7486
    58         C          0.7486      3.2591     21.3092
    59         C         21.3092      0.7486      3.2591
    60         C         15.2941     14.7958     23.3214
    61         C         14.7958     23.3214     15.2941
    62         C          6.7661      8.7783     21.3116
    63         C          9.2766      5.2689     15.2917
    64         C         21.3116      6.7661      8.7783
    65         C         15.2917      9.2766      5.2689
    66         C          8.7783     21.3116      6.7661
    67         C          5.2689     15.2917      9.2766
    68         C         20.8109      9.2742     11.2864
    69         C          2.7608     12.7836      8.7759
    70         C         12.7836      8.7759      2.7608
    71         C          9.2742     11.2864     20.8109
    72         C          8.7759      2.7608     12.7836
    73         C         15.5588     15.3831     22.1420
    74         C          9.3656     21.5763      7.9455
    75         C          1.9280      3.5238     20.7219
    76         C         20.7219      1.9280      3.5238
    77         C         22.1420     15.5588     15.3831
    78         C         15.3831     22.1420     15.5588
    79         C          3.5238     20.7219      1.9280
    80         C         21.4006     14.5287     16.1245
    81         C          2.4937     19.9805      2.6694
    82         C          2.6694      2.4937     19.9805
    83         C         19.9805      2.6694      2.4937
    84         C         14.5287     16.1245     21.4006
    85         C         16.1245     21.4006     14.5287
    86         C          8.6869     10.1070     20.5462
    87         C          8.5112      3.3481     13.9630
    88         C         20.5462      8.6869     10.1070
    89         C         13.9630      8.5112      3.3481
    90         C         10.1070     20.5462      8.6869
    91         C          3.3481     13.9630      8.5112
    92         C         21.5763      7.9455      9.3656
    93         C          4.0895     14.7044      9.5413
    94         C         14.7044      9.5413      4.0895
    95         C          7.9455      9.3656     21.5763
    96         C          9.5413      4.0895     14.7044
    97         C         19.2175     19.9805     17.9851
    98         C         13.9630      1.1650     12.1024
    99         C          6.0849      7.1825     16.1245
   100         C         16.1245      6.0849      7.1825
   101         C         17.9851     19.2175     19.9805
   102         C         19.9805     17.9851     19.2175
   103         C          7.1825     16.1245      6.0849
   104         C          1.9280     10.8700     11.9676
   105         C         22.9050      0.0674     22.1420
   106         C         22.1420     22.9050      0.0674
   107         C          0.0674     22.1420     22.9050
   108         C         10.8700     11.9676      1.9280
   109         C         11.9676      1.9280     10.8700
   110         C          4.0895      5.9501     16.8875
   111         C          4.8525      7.9455     18.1199
   112         C         16.8875      4.0895      5.9501
   113         C         18.1199      4.8525      7.9455
   114         C          5.9501     16.8875      4.0895
   115         C          7.9455     18.1199      4.8525
   116         C          1.1650     12.1024     13.9630
   117         C         24.0026     10.1070     13.2000
   118         C         10.1070     13.2000     24.0026
   119         C         12.1024     13.9630      1.1650
   120         C         13.2000     24.0026     10.1070
   121         C         18.4569     16.9453     20.5630
   122         C         10.9278      0.4044      9.5245
   123         C          3.5070      6.4219     19.1597
   124         C         19.1597      3.5070      6.4219
   125         C         20.5630     18.4569     16.9453
   126         C         16.9453     20.5630     18.4569
   127         C          6.4219     19.1597      3.5070
   128         C         22.9628     11.6306     14.5455
   129         C         23.6656     21.5595      1.1072
   130         C          1.1072     23.6656     21.5595
   131         C         21.5595      1.1072     23.6656
   132         C         11.6306     14.5455     22.9628
   133         C         14.5455     22.9628     11.6306
   134         C          7.1247      8.5280     17.6481
   135         C          5.6131      4.9103     15.5420
   136         C         17.6481      7.1247      8.5280
   137         C         15.5420      5.6131      4.9103
   138         C          8.5280     17.6481      7.1247
   139         C          4.9103     15.5420      5.6131
   140         C          0.4044      9.5245     10.9278
   141         C          2.5105     13.1422     12.4394
   142         C         13.1422     12.4394      2.5105
   143         C          9.5245     10.9278      0.4044
   144         C         12.4394      2.5105     13.1422
   145         C         16.5481     19.0201     20.1899
   146         C         13.0026     22.5656      9.8976
   147         C          3.8801      4.5131     17.0849
   148         C         17.0849      3.8801      4.5131
   149         C         20.1899     16.5481     19.0201
   150         C         19.0201     20.1899     16.5481
   151         C          4.5131     17.0849      3.8801
   152         C          0.9676     13.5394     14.1724
   153         C          1.5044     21.9326     23.1024
   154         C         23.1024      1.5044     21.9326
   155         C         21.9326     23.1024      1.5044
   156         C         13.5394     14.1724      0.9676
   157         C         14.1724      0.9676     13.5394
   158         C          5.0499      8.1549     19.5569
   159         C          7.5219      6.9851     15.9151
   160         C         19.5569      5.0499      8.1549
   161         C         15.9151      7.5219      6.9851
   162         C          8.1549     19.5569      5.0499
   163         C          6.9851     15.9151      7.5219
   164         C         22.5656      9.8976     13.0026
   165         C          2.1374     11.0674     10.5306
   166         C         11.0674     10.5306      2.1374
   167         C          9.8976     13.0026     22.5656
   168         C         10.5306      2.1374     11.0674
   169         C         23.2251     21.9904     23.9087
   170         C         15.9729      5.1726      6.1788
   171         C          0.1613     11.1901     14.1146
   172         C         14.1146      0.1613     11.1901
   173         C         23.9087     23.2251     21.9904
   174         C         21.9904     23.9087     23.2251
   175         C         11.1901     14.1146      0.1613
   176         C          3.9379      6.8624     17.8912
   177         C         18.8974     18.2138     20.1321
   178         C         20.1321     18.8974     18.2138
   179         C         18.2138     20.1321     18.8974
   180         C          6.8624     17.8912      3.9379
   181         C         17.8912      3.9379      6.8624
   182         C          2.0796     11.8737     12.8799
   183         C          0.8449      9.9554     12.1963
   184         C         12.8799      2.0796     11.8737
   185         C         12.1963      0.8449      9.9554
   186         C         11.8737     12.8799      2.0796
   187         C          9.9554     12.1963      0.8449
   188         C          5.1726      6.1788     15.9729
   189         C          5.8562      8.0971     17.2076
   190         C          8.0971     17.2076      5.8562
   191         C          6.1788     15.9729      5.1726
   192         C         17.2076      5.8562      8.0971
   193         C         17.1667     16.7912     21.0083
   194         C         10.7737     23.1842      9.0792
   195         C          3.0617      5.1317     19.3138
   196         C         19.3138      3.0617      5.1317
   197         C         21.0083     17.1667     16.7912
   198         C         16.7912     21.0083     17.1667
   199         C          5.1317     19.3138      3.0617
   200         C         22.8087     12.9208     14.9908
   201         C          0.8858     21.1142      1.2613
   202         C          1.2613      0.8858     21.1142
   203         C         21.1142      1.2613      0.8858
   204         C         12.9208     14.9908     22.8087
   205         C         14.9908     22.8087     12.9208
   206         C          7.2788      8.9733     18.9383
   207         C          6.9033      4.7562     15.0967
   208         C         18.9383      7.2788      8.9733
   209         C         15.0967      6.9033      4.7562
   210         C          8.9733     18.9383      7.2788
   211         C          4.7562     15.0967      6.9033
   212         C         23.1842      9.0792     10.7737
   213         C          2.9558     13.2963     11.1492
   214         C         13.2963     11.1492      2.9558
   215         C          9.0792     10.7737     23.1842
   216         C         11.1492      2.9558     13.2963
   217         C         19.2993     15.8910     20.0335
   218         C          9.8735      1.2468     10.0540
   219         C          4.0365      7.2643     20.2140
   220         C         20.2140      4.0365      7.2643
   221         C         20.0335     19.2993     15.8910
   222         C         15.8910     20.0335     19.2993
   223         C          7.2643     20.2140      4.0365
   224         C         21.9085     10.7882     14.0160
   225         C         22.8232     22.0890      2.1615
   226         C          2.1615     22.8232     22.0890
   227         C         22.0890      2.1615     22.8232
   228         C         10.7882     14.0160     21.9085
   229         C         14.0160     21.9085     10.7882
   230         C          8.1790      7.9985     16.8057
   231         C          4.7707      3.8560     16.0715
   232         C         16.8057      8.1790      7.9985
   233         C         16.0715      4.7707      3.8560
   234         C          7.9985     16.8057      8.1790
   235         C          3.8560     16.0715      4.7707
   236         C          1.2468     10.0540      9.8735
   237         C          1.9810     14.1965     13.2818
   238         C         14.1965     13.2818      1.9810
   239         C         10.0540      9.8735      1.2468
   240         C         13.2818      1.9810     14.1965
   241         C         16.8803     15.4770     21.4873
   242         C          9.4595     22.8978      8.6002
   243         C          2.5827      4.8453     20.6280
   244         C         20.6280      2.5827      4.8453
   245         C         21.4873     16.8803     15.4770
   246         C         15.4770     21.4873     16.8803
   247         C          4.8453     20.6280      2.5827
   248         C         21.4945     13.2072     15.4698
   249         C          1.1722     20.6352      2.5755
   250         C          2.5755      1.1722     20.6352
   251         C         20.6352      2.5755      1.1722
   252         C         13.2072     15.4698     21.4945
   253         C         15.4698     21.4945     13.2072
   254         C          8.5930      9.4523     19.2247
   255         C          7.1897      3.4420     14.6177
   256         C         19.2247      8.5930      9.4523
   257         C         14.6177      7.1897      3.4420
   258         C          9.4523     19.2247      8.5930
   259         C          3.4420     14.6177      7.1897
   260         C         22.8978      8.6002      9.4595
   261         C          3.4348     14.6105     10.8628
   262         C         14.6105     10.8628      3.4348
   263         C          8.6002      9.4595     22.8978
   264         C         10.8628      3.4348     14.6105
   265         B         16.1630     17.8142     20.7291
   266         B         11.7967     22.1805      9.3584
   267         B          3.3409      4.1280     18.2908
   268         B         18.2908      3.3409      4.1280
   269         B         20.7291     16.1630     17.8142
   270         B         17.8142     20.7291     16.1630
   271         B          4.1280     18.2908      3.3409
   272         B         23.8317     13.9245     14.7116
   273         B          1.8895     21.3934      0.2383
   274         B          0.2383      1.8895     21.3934
   275         B         21.3934      0.2383      1.8895
   276         B         13.9245     14.7116     23.8317
   277         B         14.7116     23.8317     13.9245
   278         B          6.2558      8.6941     19.9420
   279         B          7.9070      5.7792     15.3759
   280         B         19.9420      6.2558      8.6941
   281         B         15.3759      7.9070      5.7792
   282         B          8.6941     19.9420      6.2558
   283         B          5.7792     15.3759      7.9070
   284         B         22.1805      9.3584     11.7967
   285         B          2.6766     12.2733     10.1455
   286         B         12.2733     10.1455      2.6766
   287         B          9.3584     11.7967     22.1805
   288         B         10.1455      2.6766     12.2733
   289         H         13.4503     21.5980     17.5518
   290         H         15.5805     19.4678     12.5357
   291         H          6.5182      1.4153     14.5070
   292         H         14.5070      6.5182      1.4153
   293         H         17.5518     13.4503     21.5980
   294         H         21.5980     17.5518     13.4503
   295         H          1.4153     14.5070      6.5182
   296         H          3.5455     16.6372     11.5343
   297         H          4.6022      0.5007     20.5245
   298         H         20.5245      4.6022      0.5007
   299         H          0.5007     20.5245      4.6022
   300         H         16.6372     11.5343      3.5455
   301         H         11.5343      3.5455     16.6372
   302         H          2.4720      5.5168     22.6547
   303         H         10.6197      9.5630     18.5532
   304         H         22.6547      2.4720      5.5168
   305         H         18.5532     10.6197      9.5630
   306         H          5.5168     22.6547      2.4720
   307         H          9.5630     18.5532     10.6197
   308         H         19.4678     12.5357     15.5805
   309         H         23.5693      8.4895      7.4328
   310         H          8.4895      7.4328     23.5693
   311         H         12.5357     15.5805     19.4678
   312         H          7.4328     23.5693      8.4895
   313         H         13.7488     20.1273     19.4991
   314         H         14.1098     19.7663     10.5884
   315         H          4.5709      1.7138     15.9777
   316         H         15.9777      4.5709      1.7138
   317         H         19.4991     13.7488     20.1273
   318         H         20.1273     19.4991     13.7488
   319         H          1.7138     15.9777      4.5709
   320         H          2.0748     16.3387     13.4816
   321         H          4.3037     22.6234     21.9952
   322         H         21.9952      4.3037     22.6234
   323         H         22.6234     21.9952      4.3037
   324         H         16.3387     13.4816      2.0748
   325         H         13.4816      2.0748     16.3387
   326         H          3.9427      7.4641     22.3562
   327         H         10.3212      8.0923     16.6059
   328         H         22.3562      3.9427      7.4641
   329         H         16.6059     10.3212      8.0923
   330         H          7.4641     22.3562      3.9427
   331         H          8.0923     16.6059     10.3212
   332         H         19.7663     10.5884     14.1098
   333         H          1.4466      9.9602      7.7313
   334         H          9.9602      7.7313      1.4466
   335         H         10.5884     14.1098     19.7663
   336         H          7.7313      1.4466      9.9602
   337         H         14.0039     17.8985     20.3367
   338         H         11.8810     20.0214      9.7508
   339         H          3.7333      1.9689     18.2065
   340         H         18.2065      3.7333      1.9689
   341         H         20.3367     14.0039     17.8985
   342         H         17.8985     20.3367     14.0039
   343         H          1.9689     18.2065      3.7333
   344         H         23.9160     16.0836     14.3192
   345         H          4.0486     21.7858      0.1540
   346         H          0.1540      4.0486     21.7858
   347         H         21.7858      0.1540      4.0486
   348         H         16.0836     14.3192     23.9160
   349         H         14.3192     23.9160     16.0836
   350         H          6.1715      8.3017     22.1011
   351         H         10.0661      5.8635     15.7683
   352         H         22.1011      6.1715      8.3017
   353         H         15.7683     10.0661      5.8635
   354         H          8.3017     22.1011      6.1715
   355         H          5.8635     15.7683     10.0661
   356         H         20.0214      9.7508     11.8810
   357         H          2.2842     12.1890      7.9864
   358         H         12.1890      7.9864      2.2842
   359         H          9.7508     11.8810     20.0214
   360         H          7.9864      2.2842     12.1890

 General Reference for PM7:
 "Optimization of Parameters for Semiempirical Methods VI: More Modifications to the 
 NDDO Approximations and Re-optimization of Parameters", J. J. P. Stewart, J. Mol. Mod., 1:32, 19 (2013)
 https://link.springer.com/article/10.1007/s00894-012-1667-x

           Empirical Formula: C264 H72 B24  =   360 atoms



      RHF CALCULATION, NO. OF DOUBLY OCCUPIED LEVELS = 600


 -------------------------------------------------------------------------------
 PM7 CHARGE=0 NOOPT




     NO PARAMETERS MARKED FOR OPTIMIZATION, SO 1SCF WAS USED  
     SCF FIELD WAS ACHIEVED                                   


                              PM7 CALCULATION
                                                       MOPAC v22.1.0 Linux
                                                       Wed Jan 31 16:42:33 2024




          FINAL HEAT OF FORMATION =       2985.04877 KCAL/MOL =   12489.44407 KJ/MOL
          H.o.F. per unit cell    =        124.37703 KCAL, for 24 unit cells, unit cell = C11 H3 B1



          IONIZATION POTENTIAL    =          7.857177 EV
          HOMO LUMO ENERGIES (EV) =         -7.857 -4.975
          NO. OF FILLED LEVELS    =        600
          MOLECULAR WEIGHT        =       3502.9128

                   THE SYSTEM IS A SOLID


                UNIT CELL TRANSLATION VECTORS

              X                Y              Z
    T1 =    24.0700000      0.0000000      0.0000000
    T2 =     0.0000000     24.0700000      0.0000000
    T3 =     0.0000000      0.0000000     24.0700000

          VOLUME OF UNIT CELL     =      13945.313 CUBIC ANGSTROMS

          DENSITY                 =          0.417 GRAMS/CC
                              A   =         24.070 ANGSTROMS
                              B   =         24.070 ANGSTROMS
                              C   =         24.070 ANGSTROMS
                            ALPHA =         90.000 DEGREES
                            BETA  =         90.000 DEGREES
                            GAMMA =         90.000 DEGREES



          SCF CALCULATIONS        =          1

          WALL-CLOCK TIME         =          1 MINUTE AND 19.266 SECONDS
          COMPUTATION TIME        =          1 MINUTE AND 19.260 SECONDS




   ATOM   CHEMICAL          X               Y               Z
  NUMBER   SYMBOL      (ANGSTROMS)     (ANGSTROMS)     (ANGSTROMS)

     1       C         17.76606700     14.46125600     21.22974000   
     2       C          8.44375600     23.78356700      8.85776000   
     3       C          2.84026000      5.73106700     21.64374400   
     4       C         21.64374400      2.84026000      5.73106700   
     5       C         21.22974000     17.76606700     14.46125600   
     6       C         14.46125600     21.22974000     17.76606700   
     7       C          5.73106700     21.64374400      2.84026000   
     8       C         20.47875600     12.32143300     15.21224000   
     9       C          0.28643300     20.89276000      3.59124400   
    10       C          3.59124400      0.28643300     20.89276000   
    11       C         20.89276000      3.59124400      0.28643300   
    12       C         12.32143300     15.21224000     20.47875600   
    13       C         15.21224000     20.47875600     12.32143300   
    14       C          9.60874400      9.19474000     18.33893300   
    15       C          6.30393300      2.42625600     14.87526000   
    16       C         18.33893300      9.60874400      9.19474000   
    17       C         14.87526000      6.30393300      2.42625600   
    18       C          9.19474000     18.33893300      9.60874400   
    19       C          2.42625600     14.87526000      6.30393300   
    20       C         23.78356700      8.85776000      8.44375600   
    21       C          3.17724000     15.62624400     11.74856700   
    22       C         15.62624400     11.74856700      3.17724000   
    23       C          8.85776000      8.44375600     23.78356700   
    24       C         11.74856700      3.17724000     15.62624400   
    25       C         18.94068300     14.63696700     20.42098800   
    26       C          8.61946700      0.88818300      9.66651200   
    27       C          3.64901200      6.90568300     21.46803300   
    28       C         21.46803300      3.64901200      6.90568300   
    29       C         20.42098800     18.94068300     14.63696700   
    30       C         14.63696700     20.42098800     18.94068300   
    31       C          6.90568300     21.46803300      3.64901200   
    32       C         20.65446700     11.14681700     14.40348800   
    33       C         23.18181700     21.70151200      3.41553300   
    34       C          3.41553300     23.18181700     21.70151200   
    35       C         21.70151200      3.41553300     23.18181700   
    36       C         11.14681700     14.40348800     20.65446700   
    37       C         14.40348800     20.65446700     11.14681700   
    38       C          9.43303300      8.38598800     17.16431700   
    39       C          5.12931700      2.60196700     15.68401200   
    40       C         17.16431700      9.43303300      8.38598800   
    41       C         15.68401200      5.12931700      2.60196700   
    42       C          8.38598800     17.16431700      9.43303300   
    43       C          2.60196700     15.68401200      5.12931700   
    44       C          0.88818300      9.66651200      8.61946700   
    45       C          2.36848800     15.45053300     12.92318300   
    46       C         15.45053300     12.92318300      2.36848800   
    47       C          9.66651200      8.61946700      0.88818300   
    48       C         12.92318300      2.36848800     15.45053300   
    49       C         14.79342200     17.30392300     20.81332900   
    50       C         11.28642300     20.81092200      9.27417100   
    51       C          3.25667100      2.75842200     18.80107700   
    52       C         18.80107700      3.25667100      2.75842200   
    53       C         20.81332900     14.79342200     17.30392300   
    54       C         17.30392300     20.81332900     14.79342200   
    55       C          2.75842200     18.80107700      3.25667100   
    56       C         23.32142300     15.29407800     14.79582900   
    57       C          3.25907800     21.30917100      0.74857700   
    58       C          0.74857700      3.25907800     21.30917100   
    59       C         21.30917100      0.74857700      3.25907800   
    60       C         15.29407800     14.79582900     23.32142300   
    61       C         14.79582900     23.32142300     15.29407800   
    62       C          6.76607700      8.77832900     21.31157800   
    63       C          9.27657800      5.26892300     15.29167100   
    64       C         21.31157800      6.76607700      8.77832900   
    65       C         15.29167100      9.27657800      5.26892300   
    66       C          8.77832900     21.31157800      6.76607700   
    67       C          5.26892300     15.29167100      9.27657800   
    68       C         20.81092200      9.27417100     11.28642300   
    69       C          2.76082900     12.78357700      8.77592200   
    70       C         12.78357700      8.77592200      2.76082900   
    71       C          9.27417100     11.28642300     20.81092200   
    72       C          8.77592200      2.76082900     12.78357700   
    73       C         15.55884800     15.38313700     22.14199300   
    74       C          9.36563700     21.57634800      7.94550700   
    75       C          1.92800700      3.52384800     20.72186300   
    76       C         20.72186300      1.92800700      3.52384800   
    77       C         22.14199300     15.55884800     15.38313700   
    78       C         15.38313700     22.14199300     15.55884800   
    79       C          3.52384800     20.72186300      1.92800700   
    80       C         21.40063700     14.52865200     16.12449300   
    81       C          2.49365200     19.98050700      2.66936300   
    82       C          2.66936300      2.49365200     19.98050700   
    83       C         19.98050700      2.66936300      2.49365200   
    84       C         14.52865200     16.12449300     21.40063700   
    85       C         16.12449300     21.40063700     14.52865200   
    86       C          8.68686300     10.10699300     20.54615200   
    87       C          8.51115200      3.34813700     13.96300700   
    88       C         20.54615200      8.68686300     10.10699300   
    89       C         13.96300700      8.51115200      3.34813700   
    90       C         10.10699300     20.54615200      8.68686300   
    91       C          3.34813700     13.96300700      8.51115200   
    92       C         21.57634800      7.94550700      9.36563700   
    93       C          4.08949300     14.70436300      9.54134800   
    94       C         14.70436300      9.54134800      4.08949300   
    95       C          7.94550700      9.36563700     21.57634800   
    96       C          9.54134800      4.08949300     14.70436300   
    97       C         19.21748800     19.98050700     17.98510400   
    98       C         13.96300700      1.16498800     12.10239600   
    99       C          6.08489600      7.18248800     16.12449300   
   100       C         16.12449300      6.08489600      7.18248800   
   101       C         17.98510400     19.21748800     19.98050700   
   102       C         19.98050700     17.98510400     19.21748800   
   103       C          7.18248800     16.12449300      6.08489600   
   104       C          1.92800700     10.87001200     11.96760400   
   105       C         22.90501200      0.06739600     22.14199300   
   106       C         22.14199300     22.90501200      0.06739600   
   107       C          0.06739600     22.14199300     22.90501200   
   108       C         10.87001200     11.96760400      1.92800700   
   109       C         11.96760400      1.92800700     10.87001200   
   110       C          4.08949300      5.95010400     16.88751200   
   111       C          4.85251200      7.94550700     18.11989600   
   112       C         16.88751200      4.08949300      5.95010400   
   113       C         18.11989600      4.85251200      7.94550700   
   114       C          5.95010400     16.88751200      4.08949300   
   115       C          7.94550700     18.11989600      4.85251200   
   116       C          1.16498800     12.10239600     13.96300700   
   117       C         24.00260400     10.10699300     13.19998800   
   118       C         10.10699300     13.19998800     24.00260400   
   119       C         12.10239600     13.96300700      1.16498800   
   120       C         13.19998800     24.00260400     10.10699300   
   121       C         18.45687600     16.94528000     20.56300100   
   122       C         10.92778000      0.40437600      9.52449900   
   123       C          3.50699900      6.42187600     19.15972000   
   124       C         19.15972000      3.50699900      6.42187600   
   125       C         20.56300100     18.45687600     16.94528000   
   126       C         16.94528000     20.56300100     18.45687600   
   127       C          6.42187600     19.15972000      3.50699900   
   128       C         22.96278000     11.63062400     14.54550100   
   129       C         23.66562400     21.55949900      1.10722000   
   130       C          1.10722000     23.66562400     21.55949900   
   131       C         21.55949900      1.10722000     23.66562400   
   132       C         11.63062400     14.54550100     22.96278000   
   133       C         14.54550100     22.96278000     11.63062400   
   134       C          7.12472000      8.52800100     17.64812400   
   135       C          5.61312400      4.91028000     15.54199900   
   136       C         17.64812400      7.12472000      8.52800100   
   137       C         15.54199900      5.61312400      4.91028000   
   138       C          8.52800100     17.64812400      7.12472000   
   139       C          4.91028000     15.54199900      5.61312400   
   140       C          0.40437600      9.52449900     10.92778000   
   141       C          2.51050100     13.14222000     12.43937600   
   142       C         13.14222000     12.43937600      2.51050100   
   143       C          9.52449900     10.92778000      0.40437600   
   144       C         12.43937600      2.51050100     13.14222000   
   145       C         16.54812500     19.02011400     20.18991600   
   146       C         13.00261400     22.56562500      9.89758400   
   147       C          3.88008400      4.51312500     17.08488600   
   148       C         17.08488600      3.88008400      4.51312500   
   149       C         20.18991600     16.54812500     19.02011400   
   150       C         19.02011400     20.18991600     16.54812500   
   151       C          4.51312500     17.08488600      3.88008400   
   152       C          0.96761400     13.53937500     14.17241600   
   153       C          1.50437500     21.93258400     23.10238600   
   154       C         23.10238600      1.50437500     21.93258400   
   155       C         21.93258400     23.10238600      1.50437500   
   156       C         13.53937500     14.17241600      0.96761400   
   157       C         14.17241600      0.96761400     13.53937500   
   158       C          5.04988600      8.15491600     19.55687500   
   159       C          7.52187500      6.98511400     15.91508400   
   160       C         19.55687500      5.04988600      8.15491600   
   161       C         15.91508400      7.52187500      6.98511400   
   162       C          8.15491600     19.55687500      5.04988600   
   163       C          6.98511400     15.91508400      7.52187500   
   164       C         22.56562500      9.89758400     13.00261400   
   165       C          2.13741600     11.06738600     10.53062500   
   166       C         11.06738600     10.53062500      2.13741600   
   167       C          9.89758400     13.00261400     22.56562500   
   168       C         10.53062500      2.13741600     11.06738600   
   169       C         23.22514300     21.99035200     23.90873100   
   170       C         15.97285200      5.17264300      6.17876900   
   171       C          0.16126900     11.19014300     14.11464800   
   172       C         14.11464800      0.16126900     11.19014300   
   173       C         23.90873100     23.22514300     21.99035200   
   174       C         21.99035200     23.90873100     23.22514300   
   175       C         11.19014300     14.11464800      0.16126900   
   176       C          3.93785200      6.86235700     17.89123100   
   177       C         18.89735700     18.21376900     20.13214800   
   178       C         20.13214800     18.89735700     18.21376900   
   179       C         18.21376900     20.13214800     18.89735700   
   180       C          6.86235700     17.89123100      3.93785200   
   181       C         17.89123100      3.93785200      6.86235700   
   182       C          2.07964800     11.87373100     12.87985700   
   183       C          0.84485700      9.95535200     12.19626900   
   184       C         12.87985700      2.07964800     11.87373100   
   185       C         12.19626900      0.84485700      9.95535200   
   186       C         11.87373100     12.87985700      2.07964800   
   187       C          9.95535200     12.19626900      0.84485700   
   188       C          5.17264300      6.17876900     15.97285200   
   189       C          5.85623100      8.09714800     17.20764300   
   190       C          8.09714800     17.20764300      5.85623100   
   191       C          6.17876900     15.97285200      5.17264300   
   192       C         17.20764300      5.85623100      8.09714800   
   193       C         17.16672400     16.79123200     21.00829600   
   194       C         10.77373200     23.18422400      9.07920400   
   195       C          3.06170400      5.13172400     19.31376800   
   196       C         19.31376800      3.06170400      5.13172400   
   197       C         21.00829600     17.16672400     16.79123200   
   198       C         16.79123200     21.00829600     17.16672400   
   199       C          5.13172400     19.31376800      3.06170400   
   200       C         22.80873200     12.92077600     14.99079600   
   201       C          0.88577600     21.11420400      1.26126800   
   202       C          1.26126800      0.88577600     21.11420400   
   203       C         21.11420400      1.26126800      0.88577600   
   204       C         12.92077600     14.99079600     22.80873200   
   205       C         14.99079600     22.80873200     12.92077600   
   206       C          7.27876800      8.97329600     18.93827600   
   207       C          6.90327600      4.75623200     15.09670400   
   208       C         18.93827600      7.27876800      8.97329600   
   209       C         15.09670400      6.90327600      4.75623200   
   210       C          8.97329600     18.93827600      7.27876800   
   211       C          4.75623200     15.09670400      6.90327600   
   212       C         23.18422400      9.07920400     10.77373200   
   213       C          2.95579600     13.29626800     11.14922400   
   214       C         13.29626800     11.14922400      2.95579600   
   215       C          9.07920400     10.77373200     23.18422400   
   216       C         11.14922400      2.95579600     13.29626800   
   217       C         19.29932600     15.89101400     20.03346100   
   218       C          9.87351400      1.24682600     10.05403900   
   219       C          4.03653900      7.26432600     20.21398600   
   220       C         20.21398600      4.03653900      7.26432600   
   221       C         20.03346100     19.29932600     15.89101400   
   222       C         15.89101400     20.03346100     19.29932600   
   223       C          7.26432600     20.21398600      4.03653900   
   224       C         21.90851400     10.78817400     14.01596100   
   225       C         22.82317400     22.08903900      2.16148600   
   226       C          2.16148600     22.82317400     22.08903900   
   227       C         22.08903900      2.16148600     22.82317400   
   228       C         10.78817400     14.01596100     21.90851400   
   229       C         14.01596100     21.90851400     10.78817400   
   230       C          8.17898600      7.99846100     16.80567400   
   231       C          4.77067400      3.85601400     16.07153900   
   232       C         16.80567400      8.17898600      7.99846100   
   233       C         16.07153900      4.77067400      3.85601400   
   234       C          7.99846100     16.80567400      8.17898600   
   235       C          3.85601400     16.07153900      4.77067400   
   236       C          1.24682600     10.05403900      9.87351400   
   237       C          1.98096100     14.19648600     13.28182600   
   238       C         14.19648600     13.28182600      1.98096100   
   239       C         10.05403900      9.87351400      1.24682600   
   240       C         13.28182600      1.98096100     14.19648600   
   241       C         16.88029100     15.47701000     21.48728900   
   242       C          9.45951000     22.89779100      8.60021100   
   243       C          2.58271100      4.84529100     20.62799000   
   244       C         20.62799000      2.58271100      4.84529100   
   245       C         21.48728900     16.88029100     15.47701000   
   246       C         15.47701000     21.48728900     16.88029100   
   247       C          4.84529100     20.62799000      2.58271100   
   248       C         21.49451000     13.20720900     15.46978900   
   249       C          1.17220900     20.63521100      2.57549000   
   250       C          2.57549000      1.17220900     20.63521100   
   251       C         20.63521100      2.57549000      1.17220900   
   252       C         13.20720900     15.46978900     21.49451000   
   253       C         15.46978900     21.49451000     13.20720900   
   254       C          8.59299000      9.45228900     19.22470900   
   255       C          7.18970900      3.44201000     14.61771100   
   256       C         19.22470900      8.59299000      9.45228900   
   257       C         14.61771100      7.18970900      3.44201000   
   258       C          9.45228900     19.22470900      8.59299000   
   259       C          3.44201000     14.61771100      7.18970900   
   260       C         22.89779100      8.60021100      9.45951000   
   261       C          3.43478900     14.61049000     10.86279100   
   262       C         14.61049000     10.86279100      3.43478900   
   263       C          8.60021100      9.45951000     22.89779100   
   264       C         10.86279100      3.43478900     14.61049000   
   265       B         16.16300500     17.81420700     20.72908400   
   266       B         11.79670700     22.18050500      9.35841600   
   267       B          3.34091600      4.12800500     18.29079300   
   268       B         18.29079300      3.34091600      4.12800500   
   269       B         20.72908400     16.16300500     17.81420700   
   270       B         17.81420700     20.72908400     16.16300500   
   271       B          4.12800500     18.29079300      3.34091600   
   272       B         23.83170700     13.92449500     14.71158400   
   273       B          1.88949500     21.39341600      0.23829300   
   274       B          0.23829300      1.88949500     21.39341600   
   275       B         21.39341600      0.23829300      1.88949500   
   276       B         13.92449500     14.71158400     23.83170700   
   277       B         14.71158400     23.83170700     13.92449500   
   278       B          6.25579300      8.69408400     19.94199500   
   279       B          7.90699500      5.77920700     15.37591600   
   280       B         19.94199500      6.25579300      8.69408400   
   281       B         15.37591600      7.90699500      5.77920700   
   282       B          8.69408400     19.94199500      6.25579300   
   283       B          5.77920700     15.37591600      7.90699500   
   284       B         22.18050500      9.35841600     11.79670700   
   285       B          2.67658400     12.27329300     10.14550500   
   286       B         12.27329300     10.14550500      2.67658400   
   287       B          9.35841600     11.79670700     22.18050500   
   288       B         10.14550500      2.67658400     12.27329300   
   289       H         13.45031600     21.59801100     17.55184400   
   290       H         15.58051100     19.46781600     12.53565600   
   291       H          6.51815600      1.41531600     14.50698900   
   292       H         14.50698900      6.51815600      1.41531600   
   293       H         17.55184400     13.45031600     21.59801100   
   294       H         21.59801100     17.55184400     13.45031600   
   295       H          1.41531600     14.50698900      6.51815600   
   296       H          3.54551100     16.63718400     11.53434400   
   297       H          4.60218400      0.50065600     20.52448900   
   298       H         20.52448900      4.60218400      0.50065600   
   299       H          0.50065600     20.52448900      4.60218400   
   300       H         16.63718400     11.53434400      3.54551100   
   301       H         11.53434400      3.54551100     16.63718400   
   302       H          2.47198900      5.51684400     22.65468400   
   303       H         10.61968400      9.56301100     18.55315600   
   304       H         22.65468400      2.47198900      5.51684400   
   305       H         18.55315600     10.61968400      9.56301100   
   306       H          5.51684400     22.65468400      2.47198900   
   307       H          9.56301100     18.55315600     10.61968400   
   308       H         19.46781600     12.53565600     15.58051100   
   309       H         23.56934400      8.48948900      7.43281600   
   310       H          8.48948900      7.43281600     23.56934400   
   311       H         12.53565600     15.58051100     19.46781600   
   312       H          7.43281600     23.56934400      8.48948900   
   313       H         13.74878400     20.12733400     19.49910700   
   314       H         14.10983400     19.76628400     10.58839300   
   315       H          4.57089300      1.71378400     15.97766600   
   316       H         15.97766600      4.57089300      1.71378400   
   317       H         19.49910700     13.74878400     20.12733400   
   318       H         20.12733400     19.49910700     13.74878400   
   319       H          1.71378400     15.97766600      4.57089300   
   320       H          2.07483400     16.33871600     13.48160700   
   321       H          4.30371600     22.62339300     21.99516600   
   322       H         21.99516600      4.30371600     22.62339300   
   323       H         22.62339300     21.99516600      4.30371600   
   324       H         16.33871600     13.48160700      2.07483400   
   325       H         13.48160700      2.07483400     16.33871600   
   326       H          3.94266600      7.46410700     22.35621600   
   327       H         10.32121600      8.09233400     16.60589300   
   328       H         22.35621600      3.94266600      7.46410700   
   329       H         16.60589300     10.32121600      8.09233400   
   330       H          7.46410700     22.35621600      3.94266600   
   331       H          8.09233400     16.60589300     10.32121600   
   332       H         19.76628400     10.58839300     14.10983400   
   333       H          1.44660700      9.96016600      7.73128400   
   334       H          9.96016600      7.73128400      1.44660700   
   335       H         10.58839300     14.10983400     19.76628400   
   336       H          7.73128400      1.44660700      9.96016600   
   337       H         14.00392600     17.89845200     20.33674300   
   338       H         11.88095200     20.02142600      9.75075700   
   339       H          3.73325700      1.96892600     18.20654800   
   340       H         18.20654800      3.73325700      1.96892600   
   341       H         20.33674300     14.00392600     17.89845200   
   342       H         17.89845200     20.33674300     14.00392600   
   343       H          1.96892600     18.20654800      3.73325700   
   344       H         23.91595200     16.08357400     14.31924300   
   345       H          4.04857400     21.78575700      0.15404800   
   346       H          0.15404800      4.04857400     21.78575700   
   347       H         21.78575700      0.15404800      4.04857400   
   348       H         16.08357400     14.31924300     23.91595200   
   349       H         14.31924300     23.91595200     16.08357400   
   350       H          6.17154800      8.30174300     22.10107400   
   351       H         10.06607400      5.86345200     15.76825700   
   352       H         22.10107400      6.17154800      8.30174300   
   353       H         15.76825700     10.06607400      5.86345200   
   354       H          8.30174300     22.10107400      6.17154800   
   355       H          5.86345200     15.76825700     10.06607400   
   356       H         20.02142600      9.75075700     11.88095200   
   357       H          2.28424300     12.18904800      7.98642600   
   358       H         12.18904800      7.98642600      2.28424300   
   359       H          9.75075700     11.88095200     20.02142600   
   360       H          7.98642600      2.28424300     12.18904800   
   361      Tv         24.07000000      0.00000000      0.00000000   
   362      Tv          0.00000000     24.07000000      0.00000000   
   363      Tv          0.00000000      0.00000000     24.07000000   

                             CARTESIAN COORDINATES

   1    C       17.766067000    14.461256000    21.229740000
   2    C        8.443756000    23.783567000     8.857760000
   3    C        2.840260000     5.731067000    21.643744000
   4    C       21.643744000     2.840260000     5.731067000
   5    C       21.229740000    17.766067000    14.461256000
   6    C       14.461256000    21.229740000    17.766067000
   7    C        5.731067000    21.643744000     2.840260000
   8    C       20.478756000    12.321433000    15.212240000
   9    C        0.286433000    20.892760000     3.591244000
  10    C        3.591244000     0.286433000    20.892760000
  11    C       20.892760000     3.591244000     0.286433000
  12    C       12.321433000    15.212240000    20.478756000
  13    C       15.212240000    20.478756000    12.321433000
  14    C        9.608744000     9.194740000    18.338933000
  15    C        6.303933000     2.426256000    14.875260000
  16    C       18.338933000     9.608744000     9.194740000
  17    C       14.875260000     6.303933000     2.426256000
  18    C        9.194740000    18.338933000     9.608744000
  19    C        2.426256000    14.875260000     6.303933000
  20    C       23.783567000     8.857760000     8.443756000
  21    C        3.177240000    15.626244000    11.748567000
  22    C       15.626244000    11.748567000     3.177240000
  23    C        8.857760000     8.443756000    23.783567000
  24    C       11.748567000     3.177240000    15.626244000
  25    C       18.940683000    14.636967000    20.420988000
  26    C        8.619467000     0.888183000     9.666512000
  27    C        3.649012000     6.905683000    21.468033000
  28    C       21.468033000     3.649012000     6.905683000
  29    C       20.420988000    18.940683000    14.636967000
  30    C       14.636967000    20.420988000    18.940683000
  31    C        6.905683000    21.468033000     3.649012000
  32    C       20.654467000    11.146817000    14.403488000
  33    C       23.181817000    21.701512000     3.415533000
  34    C        3.415533000    23.181817000    21.701512000
  35    C       21.701512000     3.415533000    23.181817000
  36    C       11.146817000    14.403488000    20.654467000
  37    C       14.403488000    20.654467000    11.146817000
  38    C        9.433033000     8.385988000    17.164317000
  39    C        5.129317000     2.601967000    15.684012000
  40    C       17.164317000     9.433033000     8.385988000
  41    C       15.684012000     5.129317000     2.601967000
  42    C        8.385988000    17.164317000     9.433033000
  43    C        2.601967000    15.684012000     5.129317000
  44    C        0.888183000     9.666512000     8.619467000
  45    C        2.368488000    15.450533000    12.923183000
  46    C       15.450533000    12.923183000     2.368488000
  47    C        9.666512000     8.619467000     0.888183000
  48    C       12.923183000     2.368488000    15.450533000
  49    C       14.793422000    17.303923000    20.813329000
  50    C       11.286423000    20.810922000     9.274171000
  51    C        3.256671000     2.758422000    18.801077000
  52    C       18.801077000     3.256671000     2.758422000
  53    C       20.813329000    14.793422000    17.303923000
  54    C       17.303923000    20.813329000    14.793422000
  55    C        2.758422000    18.801077000     3.256671000
  56    C       23.321423000    15.294078000    14.795829000
  57    C        3.259078000    21.309171000     0.748577000
  58    C        0.748577000     3.259078000    21.309171000
  59    C       21.309171000     0.748577000     3.259078000
  60    C       15.294078000    14.795829000    23.321423000
  61    C       14.795829000    23.321423000    15.294078000
  62    C        6.766077000     8.778329000    21.311578000
  63    C        9.276578000     5.268923000    15.291671000
  64    C       21.311578000     6.766077000     8.778329000
  65    C       15.291671000     9.276578000     5.268923000
  66    C        8.778329000    21.311578000     6.766077000
  67    C        5.268923000    15.291671000     9.276578000
  68    C       20.810922000     9.274171000    11.286423000
  69    C        2.760829000    12.783577000     8.775922000
  70    C       12.783577000     8.775922000     2.760829000
  71    C        9.274171000    11.286423000    20.810922000
  72    C        8.775922000     2.760829000    12.783577000
  73    C       15.558848000    15.383137000    22.141993000
[...]
  293          H           0.158628        0.8414     0.84137
  294          H           0.158593        0.8414     0.84141
  295          H           0.162230        0.8378     0.83777
  296          H           0.162478        0.8375     0.83752
  297          H           0.158675        0.8413     0.84133
  298          H           0.158611        0.8414     0.84139
  299          H           0.158597        0.8414     0.84140
  300          H           0.162175        0.8378     0.83783
  301          H           0.162408        0.8376     0.83759
  302          H           0.152628        0.8474     0.84737
  303          H           0.169105        0.8309     0.83089
  304          H           0.152521        0.8475     0.84748
  305          H           0.169299        0.8307     0.83070
  306          H           0.152556        0.8474     0.84744
  307          H           0.168969        0.8310     0.83103
  308          H           0.152496        0.8475     0.84750
  309          H           0.169241        0.8308     0.83076
  310          H           0.168917        0.8311     0.83108
  311          H           0.152604        0.8474     0.84740
  312          H           0.169203        0.8308     0.83080
  313          H           0.163329        0.8367     0.83667
  314          H           0.168375        0.8316     0.83163
  315          H           0.165720        0.8343     0.83428
  316          H           0.165571        0.8344     0.83443
  317          H           0.163392        0.8366     0.83661
  318          H           0.163332        0.8367     0.83667
  319          H           0.165636        0.8344     0.83436
  320          H           0.165572        0.8344     0.83443
  321          H           0.163347        0.8367     0.83665
  322          H           0.163317        0.8367     0.83668
  323          H           0.163388        0.8366     0.83661
  324          H           0.165656        0.8343     0.83434
  325          H           0.165696        0.8343     0.83430
  326          H           0.168326        0.8317     0.83167
  327          H           0.156381        0.8436     0.84362
  328          H           0.168408        0.8316     0.83159
  329          H           0.156300        0.8437     0.84370
  330          H           0.168228        0.8318     0.83177
  331          H           0.156380        0.8436     0.84362
  332          H           0.168373        0.8316     0.83163
  333          H           0.156292        0.8437     0.84371
  334          H           0.156425        0.8436     0.84358
  335          H           0.168210        0.8318     0.83179
  336          H           0.156365        0.8436     0.84364
  337          H           0.150642        0.8494     0.84936
  338          H           0.140495        0.8595     0.85950
  339          H           0.144371        0.8556     0.85563
  340          H           0.144553        0.8554     0.85545
  341          H           0.150359        0.8496     0.84964
  342          H           0.150602        0.8494     0.84940
  343          H           0.144422        0.8556     0.85558
  344          H           0.144527        0.8555     0.85547
  345          H           0.150566        0.8494     0.84943
  346          H           0.150696        0.8493     0.84930
  347          H           0.150348        0.8497     0.84965
  348          H           0.144403        0.8556     0.85560
  349          H           0.144427        0.8556     0.85557
  350          H           0.140609        0.8594     0.85939
  351          H           0.157354        0.8426     0.84265
  352          H           0.140215        0.8598     0.85978
  353          H           0.157572        0.8424     0.84243
  354          H           0.140569        0.8594     0.85943
  355          H           0.157124        0.8429     0.84288
  356          H           0.140234        0.8598     0.85977
  357          H           0.157499        0.8425     0.84250
  358          H           0.157042        0.8430     0.84296
  359          H           0.140684        0.8593     0.85932
  360          H           0.157463        0.8425     0.84254


          ATOMIC ORBITAL ELECTRON POPULATIONS

     Atom    s        px        py        pz   
    1  C   1.09067   0.97204   1.07396   0.99018
    2  C   1.08233   1.09480   1.01226   1.07496
    3  C   1.09634   0.94414   0.95376   1.06305
    4  C   1.09638   1.06296   0.94400   0.95384
    5  C   1.09063   0.99023   0.97198   1.07393
    6  C   1.09056   1.07411   0.99100   0.97234
    7  C   1.09628   0.95394   1.06309   0.94459
    8  C   1.09637   1.06296   0.95386   0.94409
    9  C   1.09069   0.97193   0.98995   1.07390
   10  C   1.09058   1.07412   0.97236   0.99097
   11  C   1.09060   0.99050   1.07398   0.97208
   12  C   1.09627   0.95396   0.94471   1.06314
   13  C   1.09637   0.94404   1.06302   0.95376
   14  C   1.08236   1.09464   1.07457   1.01211
   15  C   1.08913   0.98112   1.07584   1.00105
   16  C   1.08228   1.01263   1.09507   1.07573
   17  C   1.08893   1.00304   0.98197   1.07632
   18  C   1.08243   1.07423   1.01210   1.09454
   19  C   1.08912   1.07577   1.00100   0.98109
   20  C   1.08230   1.01259   1.07556   1.09501
   21  C   1.08895   1.00277   1.07623   0.98185
   22  C   1.08916   1.07567   0.98089   1.00056
   23  C   1.08246   1.07382   1.09441   1.01192
   24  C   1.08907   0.98140   1.00171   1.07601
   25  C   1.08467   0.99386   1.04575   0.98745
   26  C   1.09923   1.03924   0.95393   0.90321
   27  C   1.07949   1.03498   1.01787   1.05796
   28  C   1.07941   1.05817   1.03579   1.01825
   29  C   1.08469   0.98721   0.99380   1.04565
   30  C   1.08481   1.04556   0.98629   0.99330
   31  C   1.07953   1.01767   1.05789   1.03463
   32  C   1.07942   1.05814   1.01819   1.03567
   33  C   1.08463   0.99401   0.98773   1.04578
   34  C   1.08480   1.04559   0.99333   0.98639
   35  C   1.08474   0.98681   1.04559   0.99361
   36  C   1.07957   1.01751   1.03431   1.05782
   37  C   1.07947   1.03526   1.05803   1.01801
   38  C   1.09917   1.03939   0.90374   0.95415
   39  C   1.08748   0.98591   1.04773   0.97162
   40  C   1.09931   0.95359   1.03900   0.90241
   41  C   1.08772   0.96972   0.98488   1.04738
   42  C   1.09910   0.90447   0.95447   1.03958
   43  C   1.08742   1.04771   0.97192   0.98609
   44  C   1.09928   0.95373   0.90274   1.03908
   45  C   1.08768   0.97006   1.04743   0.98507
   46  C   1.08737   1.04777   0.98632   0.97235
   47  C   1.09905   0.90493   1.03971   0.95467
   48  C   1.08757   0.98553   0.97092   1.04762
   49  C   1.12831   1.13006   0.96783   0.78548
   50  C   1.10922   0.97585   1.10964   0.85721
   51  C   1.12859   0.77030   1.12699   0.96152
   52  C   1.12817   0.96237   0.77402   1.12712
   53  C   1.12896   0.78024   1.12988   0.96675
   54  C   1.12872   0.96713   0.78236   1.13005
   55  C   1.12866   1.12702   0.96144   0.76993
   56  C   1.12825   0.96222   1.12710   0.77334
   57  C   1.12842   1.13001   0.78460   0.96767
   58  C   1.12851   0.96751   1.13011   0.78412
   59  C   1.12907   0.77939   0.96655   1.12988
   60  C   1.12874   1.12701   0.76926   0.96128
   61  C   1.12844   0.77165   0.96183   1.12703
   62  C   1.10919   0.97608   0.85766   1.10969
   63  C   1.09731   1.11601   1.00518   0.96729
   64  C   1.10917   1.10955   0.97545   0.85718
   65  C   1.09685   0.97118   1.11599   1.00620
   66  C   1.10891   0.85978   1.10972   0.97632
   67  C   1.09746   1.00471   0.96567   1.11593
   68  C   1.10910   1.10957   0.85781   0.97557
   69  C   1.09695   0.97027   1.00596   1.11598
   70  C   1.09759   1.00441   1.11592   0.96458
   71  C   1.10887   0.86025   0.97656   1.10974
   72  C   1.09715   1.11602   0.96870   1.00556
   73  C   1.08013   0.96889   0.97622   0.98056
   74  C   1.06697   1.02918   0.95549   1.01326
   75  C   1.08797   0.95100   0.96525   0.91937
   76  C   1.08734   0.92436   0.95282   0.96579
   77  C   1.08071   0.97888   0.96851   0.97129
   78  C   1.08043   0.97374   0.97980   0.96873
   79  C   1.08797   0.96532   0.91930   0.95108
   80  C   1.08745   0.92352   0.96574   0.95254
   81  C   1.08023   0.96882   0.98023   0.97531
   82  C   1.08022   0.97544   0.96886   0.98040
   83  C   1.08080   0.97864   0.97057   0.96846
   84  C   1.08808   0.96521   0.95077   0.91844
   85  C   1.08775   0.95163   0.92116   0.96542
   86  C   1.06709   1.02837   1.01301   0.95564
   87  C   1.08423   0.95867   0.92487   0.97109
   88  C   1.06658   0.95522   1.03202   1.01404
   89  C   1.08361   0.97319   0.95906   0.93013
   90  C   1.06676   1.01371   0.95576   1.03120
   91  C   1.08441   0.92313   0.97039   0.95849
   92  C   1.06653   0.95529   1.01415   1.03251
   93  C   1.08376   0.97267   0.92882   0.95897
   94  C   1.08454   0.92195   0.95838   0.96990
   95  C   1.06688   1.01347   1.03037   0.95589
   96  C   1.08403   0.95882   0.97179   0.92660
   97  C   1.06786   1.03826   1.08922   1.00611
   98  C   1.06635   1.10329   1.03607   1.01136
   99  C   1.06834   0.98605   1.02789   1.05636
  100  C   1.06830   1.05685   0.98583   1.02876
  101  C   1.06771   1.00618   1.03889   1.09038
  102  C   1.06782   1.08945   1.00633   1.03797
  103  C   1.06836   1.02733   1.05581   0.98607
  104  C   1.06830   1.05665   1.02853   0.98584
  105  C   1.06782   1.03858   1.00606   1.08956
  106  C   1.06786   1.08907   1.03778   1.00630
  107  C   1.06771   1.00626   1.09042   1.03877
  108  C   1.06838   1.02704   0.98616   1.05562
  109  C   1.06832   0.98596   1.05658   1.02825
  110  C   1.06639   1.10306   1.01139   1.03589
  111  C   1.07566   0.98791   1.01591   1.00354
  112  C   1.06631   1.03640   1.10362   1.01128
  113  C   1.07567   1.00373   0.98733   1.01562
  114  C   1.06642   1.01128   1.03587   1.10274
  115  C   1.07560   1.01648   1.00353   0.98830
  116  C   1.06633   1.03629   1.01126   1.10342
  117  C   1.07566   1.00370   1.01575   0.98747
  118  C   1.07559   1.01667   0.98852   1.00350
  119  C   1.06644   1.01130   1.10264   1.03582
  120  C   1.07567   0.98768   1.00361   1.01577
  121  C   1.06538   1.01498   0.97603   1.06919
  122  C   1.06360   0.96948   0.99712   1.04373
  123  C   1.06281   1.11676   1.02614   0.98473
  124  C   1.06289   0.98501   1.11684   1.02617
  125  C   1.06527   1.06943   1.01509   0.97582
  126  C   1.06535   0.97582   1.06865   1.01482
  127  C   1.06280   1.02606   0.98468   1.11659
  128  C   1.06288   0.98497   1.02616   1.11679
  129  C   1.06535   1.01506   1.06945   0.97603
  130  C   1.06538   0.97589   1.01480   1.06860
  131  C   1.06526   1.06923   0.97575   1.01503
  132  C   1.06278   1.02603   1.11656   0.98461
  133  C   1.06284   1.11680   0.98482   1.02616
  134  C   1.06358   0.96959   1.04395   0.99699
  135  C   1.07373   1.00195   0.98571   1.02381
  136  C   1.06365   0.99738   0.96930   1.04337
  137  C   1.07399   1.02088   1.00109   0.98549
  138  C   1.06359   1.04442   0.99703   0.96980
  139  C   1.07369   0.98563   1.02393   1.00199
  140  C   1.06364   0.99734   1.04353   0.96938
  141  C   1.07396   1.02117   0.98552   1.00117
  142  C   1.07361   0.98565   1.00224   1.02475
  143  C   1.06357   1.04464   0.96990   0.99694
  144  C   1.07382   1.00164   1.02278   0.98565
  145  C   1.15810   0.93631   0.90111   0.71644
  146  C   1.12459   0.95773   0.93016   0.89049
  147  C   1.15142   0.75126   0.93153   0.90864
  148  C   1.15191   0.90763   0.74845   0.93186
  149  C   1.15754   0.71965   0.93589   0.90222
  150  C   1.15780   0.90172   0.71810   0.93618
  151  C   1.15138   0.93162   0.90869   0.75139
  152  C   1.15182   0.90780   0.93184   0.74896
  153  C   1.15800   0.93621   0.71701   0.90130
  154  C   1.15799   0.90135   0.93631   0.71703
  155  C   1.15745   0.72012   0.90239   0.93586
  156  C   1.15130   0.93156   0.75185   0.90886
  157  C   1.15160   0.75026   0.90828   0.93164
  158  C   1.12481   0.95733   0.88924   0.93040
  159  C   1.12278   0.95239   0.94100   0.87157
  160  C   1.12421   0.92972   0.95839   0.89262
  161  C   1.12387   0.86599   0.95281   0.93932
  162  C   1.12508   0.88770   0.93055   0.95678
  163  C   1.12219   0.94195   0.87470   0.95218
  164  C   1.12433   0.92982   0.89190   0.95815
  165  C   1.12359   0.86741   0.93975   0.95274
  166  C   1.12186   0.94248   0.95201   0.87646
  167  C   1.12526   0.88668   0.95645   0.93074
  168  C   1.12320   0.95257   0.86940   0.94034
  169  C   1.07677   0.93026   0.84708   0.96267
  170  C   1.08692   0.82121   0.92997   0.95937
  171  C   1.08346   0.95868   0.93351   0.81580
  172  C   1.08339   0.81601   0.95882   0.93336
  173  C   1.07658   0.96277   0.93030   0.84804
  174  C   1.07639   0.84906   0.96311   0.93043
  175  C   1.08319   0.93331   0.81702   0.95903
  176  C   1.08331   0.81640   0.93334   0.95893
  177  C   1.07678   0.93024   0.96262   0.84703
  178  C   1.07648   0.84857   0.93039   0.96303
  179  C   1.07647   0.96290   0.84859   0.93036
  180  C   1.08324   0.93338   0.95897   0.81686
  181  C   1.08351   0.95862   0.81552   0.93349
  182  C   1.08694   0.82114   0.95942   0.92996
  183  C   1.05571   0.96281   0.97775   0.98292
  184  C   1.08724   0.92944   0.81923   0.95931
  185  C   1.05574   0.98282   0.96291   0.97760
  186  C   1.08739   0.95960   0.92909   0.81842
  187  C   1.05594   0.97655   0.98239   0.96317
  188  C   1.08740   0.92918   0.95933   0.81834
  189  C   1.05578   0.98271   0.97742   0.96303
  190  C   1.05588   0.97684   0.96311   0.98249
  191  C   1.08728   0.95957   0.81911   0.92932
  192  C   1.05569   0.96274   0.98299   0.97786
  193  C   1.09733   0.98585   0.99828   0.87948
  194  C   1.09363   1.00584   0.99156   0.92271
  195  C   1.10015   0.83872   0.98297   0.98619
  196  C   1.09986   0.98650   0.84039   0.98295
  197  C   1.09757   0.87794   0.98587   0.99789
  198  C   1.09746   0.99814   0.87909   0.98598
  199  C   1.10014   0.98303   0.98616   0.83892
  200  C   1.09990   0.98643   0.98297   0.84019
  201  C   1.09737   0.98583   0.87906   0.99819
  202  C   1.09738   0.99828   0.98597   0.87958
  203  C   1.09760   0.87787   0.99785   0.98592
  204  C   1.10020   0.98304   0.83863   0.98612
  205  C   1.10005   0.83928   0.98631   0.98295
  206  C   1.09346   1.00581   0.92347   0.99165
  207  C   1.08807   0.99113   1.01151   0.93837
  208  C   1.09391   0.99134   1.00589   0.92130
  209  C   1.08775   0.94150   0.99127   1.01225
  210  C   1.09337   0.92384   0.99162   1.00586
  211  C   1.08813   1.01129   0.93771   0.99107
  212  C   1.09385   0.99136   0.92161   1.00590
  213  C   1.08779   0.94106   1.01210   0.99127
  214  C   1.08824   1.01109   0.99101   0.93676
  215  C   1.09324   0.92447   1.00585   0.99169
  216  C   1.08795   0.99120   0.93951   1.01177
  217  C   1.08315   0.99592   0.98649   0.97764
  218  C   1.07885   0.98721   1.00298   0.99454
  219  C   1.09197   0.91307   0.94906   0.97001
  220  C   1.09229   0.96957   0.91146   0.94810
  221  C   1.08304   0.97821   0.99613   0.98674
  222  C   1.08294   0.98687   0.97903   0.99676
  223  C   1.09190   0.94947   0.97013   0.91366
  224  C   1.09224   0.96964   0.94827   0.91174
  225  C   1.08318   0.99573   0.97740   0.98645
  226  C   1.08297   0.98678   0.99669   0.97883
  227  C   1.08297   0.97867   0.98686   0.99642
  228  C   1.09181   0.94978   0.91415   0.97026
  229  C   1.09208   0.91248   0.96986   0.94870
  230  C   1.07893   0.98696   0.99381   1.00262
  231  C   1.08437   1.00425   0.98085   0.98052
  232  C   1.07874   1.00350   0.98758   0.99566
  233  C   1.08411   0.98258   1.00577   0.98124
  234  C   1.07915   0.99249   1.00175   0.98661
  235  C   1.08437   0.98089   0.98047   1.00415
  236  C   1.07881   1.00318   0.99514   0.98743
  237  C   1.08415   0.98227   0.98118   1.00553
  238  C   1.08442   0.98083   1.00382   0.98004
  239  C   1.07923   0.99184   0.98641   1.00141
  240  C   1.08429   1.00478   0.98122   0.98098
  241  C   1.07216   0.96718   0.99712   0.98716
  242  C   1.09453   0.97679   0.93329   0.83711
  243  C   1.06700   1.04225   0.98080   1.00965
  244  C   1.06689   1.00914   1.04152   0.98074
  245  C   1.07226   0.98794   0.96726   0.99763
  246  C   1.07233   0.99733   0.98675   0.96694
  247  C   1.06703   0.98069   1.00966   1.04199
  248  C   1.06690   1.00924   0.98073   1.04165
  249  C   1.07214   0.96728   0.98756   0.99723
  250  C   1.07229   0.99715   0.96692   0.98649
  251  C   1.07232   0.98777   0.99769   0.96717
  252  C   1.06707   0.98067   1.04199   1.00974
  253  C   1.06696   1.04200   1.00946   0.98079
  254  C   1.09438   0.97695   0.83781   0.93352
  255  C   1.07304   0.97032   0.99299   0.97397
  256  C   1.09480   0.93280   0.97637   0.83563
  257  C   1.07324   0.97101   0.96963   0.99212
  258  C   1.09434   0.83750   0.93348   0.97674
  259  C   1.07304   0.99323   0.97448   0.97039
  260  C   1.09476   0.93284   0.83571   0.97636
  261  C   1.07320   0.97159   0.99231   0.96974
  262  C   1.07301   0.99343   0.97054   0.97513
  263  C   1.09421   0.83812   0.97688   0.93370
  264  C   1.07310   0.97008   0.97296   0.99270
  265  B   0.58150   0.93158   0.90490   0.93694
  266  B   0.60509   0.90115   0.94872   0.81327
  267  B   0.57632   0.97377   0.93073   0.91098
  268  B   0.57705   0.91018   0.96901   0.93137
  269  B   0.58050   0.94350   0.93086   0.90600
  270  B   0.58093   0.90556   0.94056   0.93100
  271  B   0.57628   0.93064   0.91113   0.97411
  272  B   0.57692   0.91035   0.93126   0.96986
  273  B   0.58132   0.93150   0.93812   0.90508
  274  B   0.58127   0.90518   0.93126   0.93834
  275  B   0.58034   0.94449   0.90619   0.93069
  276  B   0.57615   0.93050   0.97495   0.91127
  277  B   0.57658   0.97206   0.91067   0.93097
  278  B   0.60542   0.90079   0.81134   0.94883
  279  B   0.65731   0.95791   0.87847   0.50923
  280  B   0.60455   0.94861   0.90176   0.81644
  281  B   0.65781   0.50623   0.95863   0.87727
  282  B   0.60571   0.80946   0.94910   0.90041
  283  B   0.65699   0.87910   0.51130   0.95766
  284  B   0.60471   0.94870   0.81549   0.90157
  285  B   0.65770   0.50695   0.87756   0.95847
  286  B   0.65679   0.87949   0.95747   0.51251
  287  B   0.60601   0.80770   0.90008   0.94923
  288  B   0.65751   0.95815   0.50798   0.87800
  289  H   0.84134
  290  H   0.84738
  291  H   0.83768
  292  H   0.83746
  293  H   0.84137
  294  H   0.84141
  295  H   0.83777
  296  H   0.83752
  297  H   0.84133
  298  H   0.84139
  299  H   0.84140
  300  H   0.83783
  301  H   0.83759
  302  H   0.84737
  303  H   0.83089
  304  H   0.84748
  305  H   0.83070
  306  H   0.84744
  307  H   0.83103
  308  H   0.84750
  309  H   0.83076
  310  H   0.83108
  311  H   0.84740
  312  H   0.83080
  313  H   0.83667
  314  H   0.83163
  315  H   0.83428
  316  H   0.83443
  317  H   0.83661
  318  H   0.83667
  319  H   0.83436
  320  H   0.83443
  321  H   0.83665
  322  H   0.83668
  323  H   0.83661
  324  H   0.83434
  325  H   0.83430
  326  H   0.83167
  327  H   0.84362
  328  H   0.83159
  329  H   0.84370
  330  H   0.83177
  331  H   0.84362
  332  H   0.83163
  333  H   0.84371
  334  H   0.84358
  335  H   0.83179
  336  H   0.84364
  337  H   0.84936
  338  H   0.85950
  339  H   0.85563
  340  H   0.85545
  341  H   0.84964
  342  H   0.84940
  343  H   0.85558
  344  H   0.85547
  345  H   0.84943
  346  H   0.84930
  347  H   0.84965
  348  H   0.85560
  349  H   0.85557
  350  H   0.85939
  351  H   0.84265
  352  H   0.85978
  353  H   0.84243
  354  H   0.85943
  355  H   0.84288
  356  H   0.85977
  357  H   0.84250
  358  H   0.84296
  359  H   0.85932
  360  H   0.84254

 **********************
 *                    *
 * JOB ENDED NORMALLY *
 *                    *
 **********************



 TOTAL JOB TIME:            79.35 SECONDS

 == MOPAC DONE ==
