 *******************************************************************************
 **                                                                           **
 **                              MOPAC v22.1.0                                **
 **                                                                           **
 *******************************************************************************
 **          Digital Object Identifier (DOI): 10.5281/zenodo.6511958          **
 **    Visit the DOI location for information on how to cite this program.    **
 *******************************************************************************

                              PM7 CALCULATION RESULTS

 *******************************************************************************
 *  CALCULATION DONE:                                Wed Jan 31 16:21:26 2024  *
 *  PM7        - The PM7 Hamiltonian to be used
 *  NOOPT      - DO NOT OPTIMIZE ANY COORDINATES
 *
 *
 *
 *                 CHARGE ON SYSTEM = 0
 *
 *
 *
 *  T=         - A TIME OF 172800.0 SECONDS REQUESTED
 *  DUMP=N     - RESTART FILE WRITTEN EVERY 7200.0 SECONDS REQUESTED
 *******************************************************************************
PM7 CHARGE=0 NOOPT


   ATOM   CHEMICAL          X               Y               Z
  NUMBER   SYMBOL      (ANGSTROMS)     (ANGSTROMS)     (ANGSTROMS)

     1       C         17.76606700     14.46125600     21.22974000   
     2       C          8.44375600     23.78356700      8.85776000   
     3       C          2.84026000      5.73106700     21.64374400   
     4       C         21.64374400      2.84026000      5.73106700   
     5       C         21.22974000     17.76606700     14.46125600   
     6       C         14.46125600     21.22974000     17.76606700   
     7       C          5.73106700     21.64374400      2.84026000   
     8       C         20.47875600     12.32143300     15.21224000   
     9       C          0.28643300     20.89276000      3.59124400   
    10       C          3.59124400      0.28643300     20.89276000   
    11       C         20.89276000      3.59124400      0.28643300   
    12       C         12.32143300     15.21224000     20.47875600   
    13       C         15.21224000     20.47875600     12.32143300   
    14       C          9.60874400      9.19474000     18.33893300   
    15       C          6.30393300      2.42625600     14.87526000   
    16       C         18.33893300      9.60874400      9.19474000   
    17       C         14.87526000      6.30393300      2.42625600   
    18       C          9.19474000     18.33893300      9.60874400   
    19       C          2.42625600     14.87526000      6.30393300   
    20       C         23.78356700      8.85776000      8.44375600   
    21       C          3.17724000     15.62624400     11.74856700   
    22       C         15.62624400     11.74856700      3.17724000   
    23       C          8.85776000      8.44375600     23.78356700   
    24       C         11.74856700      3.17724000     15.62624400   
    25       C         18.94068300     14.63696700     20.42098800   
    26       C          8.61946700      0.88818300      9.66651200   
    27       C          3.64901200      6.90568300     21.46803300   
    28       C         21.46803300      3.64901200      6.90568300   
    29       C         20.42098800     18.94068300     14.63696700   
    30       C         14.63696700     20.42098800     18.94068300   
    31       C          6.90568300     21.46803300      3.64901200   
    32       C         20.65446700     11.14681700     14.40348800   
    33       C         23.18181700     21.70151200      3.41553300   
    34       C          3.41553300     23.18181700     21.70151200   
    35       C         21.70151200      3.41553300     23.18181700   
    36       C         11.14681700     14.40348800     20.65446700   
    37       C         14.40348800     20.65446700     11.14681700   
    38       C          9.43303300      8.38598800     17.16431700   
    39       C          5.12931700      2.60196700     15.68401200   
    40       C         17.16431700      9.43303300      8.38598800   
    41       C         15.68401200      5.12931700      2.60196700   
    42       C          8.38598800     17.16431700      9.43303300   
    43       C          2.60196700     15.68401200      5.12931700   
    44       C          0.88818300      9.66651200      8.61946700   
    45       C          2.36848800     15.45053300     12.92318300   
    46       C         15.45053300     12.92318300      2.36848800   
    47       C          9.66651200      8.61946700      0.88818300   
    48       C         12.92318300      2.36848800     15.45053300   
    49       C         14.79342200     17.30392300     20.81332900   
    50       C         11.28642300     20.81092200      9.27417100   
    51       C          3.25667100      2.75842200     18.80107700   
    52       C         18.80107700      3.25667100      2.75842200   
    53       C         20.81332900     14.79342200     17.30392300   
    54       C         17.30392300     20.81332900     14.79342200   
    55       C          2.75842200     18.80107700      3.25667100   
    56       C         23.32142300     15.29407800     14.79582900   
    57       C          3.25907800     21.30917100      0.74857700   
    58       C          0.74857700      3.25907800     21.30917100   
    59       C         21.30917100      0.74857700      3.25907800   
    60       C         15.29407800     14.79582900     23.32142300   
    61       C         14.79582900     23.32142300     15.29407800   
    62       C          6.76607700      8.77832900     21.31157800   
    63       C          9.27657800      5.26892300     15.29167100   
    64       C         21.31157800      6.76607700      8.77832900   
    65       C         15.29167100      9.27657800      5.26892300   
    66       C          8.77832900     21.31157800      6.76607700   
    67       C          5.26892300     15.29167100      9.27657800   
    68       C         20.81092200      9.27417100     11.28642300   
    69       C          2.76082900     12.78357700      8.77592200   
    70       C         12.78357700      8.77592200      2.76082900   
    71       C          9.27417100     11.28642300     20.81092200   
    72       C          8.77592200      2.76082900     12.78357700   
    73       C         15.55884800     15.38313700     22.14199300   
    74       C          9.36563700     21.57634800      7.94550700   
    75       C          1.92800700      3.52384800     20.72186300   
    76       C         20.72186300      1.92800700      3.52384800   
    77       C         22.14199300     15.55884800     15.38313700   
    78       C         15.38313700     22.14199300     15.55884800   
    79       C          3.52384800     20.72186300      1.92800700   
    80       C         21.40063700     14.52865200     16.12449300   
    81       C          2.49365200     19.98050700      2.66936300   
    82       C          2.66936300      2.49365200     19.98050700   
    83       C         19.98050700      2.66936300      2.49365200   
    84       C         14.52865200     16.12449300     21.40063700   
    85       C         16.12449300     21.40063700     14.52865200   
    86       C          8.68686300     10.10699300     20.54615200   
    87       C          8.51115200      3.34813700     13.96300700   
    88       C         20.54615200      8.68686300     10.10699300   
    89       C         13.96300700      8.51115200      3.34813700   
    90       C         10.10699300     20.54615200      8.68686300   
    91       C          3.34813700     13.96300700      8.51115200   
    92       C         21.57634800      7.94550700      9.36563700   
    93       C          4.08949300     14.70436300      9.54134800   
    94       C         14.70436300      9.54134800      4.08949300   
    95       C          7.94550700      9.36563700     21.57634800   
    96       C          9.54134800      4.08949300     14.70436300   
    97       C         19.21748800     19.98050700     17.98510400   
    98       C         13.96300700      1.16498800     12.10239600   
    99       C          6.08489600      7.18248800     16.12449300   
   100       C         16.12449300      6.08489600      7.18248800   
   101       C         17.98510400     19.21748800     19.98050700   
   102       C         19.98050700     17.98510400     19.21748800   
   103       C          7.18248800     16.12449300      6.08489600   
   104       C          1.92800700     10.87001200     11.96760400   
   105       C         22.90501200      0.06739600     22.14199300   
   106       C         22.14199300     22.90501200      0.06739600   
   107       C          0.06739600     22.14199300     22.90501200   
   108       C         10.87001200     11.96760400      1.92800700   
   109       C         11.96760400      1.92800700     10.87001200   
   110       C          4.08949300      5.95010400     16.88751200   
   111       C          4.85251200      7.94550700     18.11989600   
   112       C         16.88751200      4.08949300      5.95010400   
   113       C         18.11989600      4.85251200      7.94550700   
   114       C          5.95010400     16.88751200      4.08949300   
   115       C          7.94550700     18.11989600      4.85251200   
   116       C          1.16498800     12.10239600     13.96300700   
   117       C         24.00260400     10.10699300     13.19998800   
   118       C         10.10699300     13.19998800     24.00260400   
   119       C         12.10239600     13.96300700      1.16498800   
   120       C         13.19998800     24.00260400     10.10699300   
   121       C         16.54812500     19.02011400     20.18991600   
   122       C         13.00261400     22.56562500      9.89758400   
   123       C          3.88008400      4.51312500     17.08488600   
   124       C         17.08488600      3.88008400      4.51312500   
   125       C         20.18991600     16.54812500     19.02011400   
   126       C         19.02011400     20.18991600     16.54812500   
   127       C          4.51312500     17.08488600      3.88008400   
   128       C          0.96761400     13.53937500     14.17241600   
   129       C          1.50437500     21.93258400     23.10238600   
   130       C         23.10238600      1.50437500     21.93258400   
   131       C         21.93258400     23.10238600      1.50437500   
   132       C         13.53937500     14.17241600      0.96761400   
   133       C         14.17241600      0.96761400     13.53937500   
   134       C          5.04988600      8.15491600     19.55687500   
   135       C          7.52187500      6.98511400     15.91508400   
   136       C         19.55687500      5.04988600      8.15491600   
   137       C         15.91508400      7.52187500      6.98511400   
   138       C          8.15491600     19.55687500      5.04988600   
   139       C          6.98511400     15.91508400      7.52187500   
   140       C         22.56562500      9.89758400     13.00261400   
   141       C          2.13741600     11.06738600     10.53062500   
   142       C         11.06738600     10.53062500      2.13741600   
   143       C          9.89758400     13.00261400     22.56562500   
   144       C         10.53062500      2.13741600     11.06738600   
   145       C         23.22514300     21.99035200     23.90873100   
   146       C         15.97285200      5.17264300      6.17876900   
   147       C          0.16126900     11.19014300     14.11464800   
   148       C         14.11464800      0.16126900     11.19014300   
   149       C         23.90873100     23.22514300     21.99035200   
   150       C         21.99035200     23.90873100     23.22514300   
   151       C         11.19014300     14.11464800      0.16126900   
   152       C          3.93785200      6.86235700     17.89123100   
   153       C         18.89735700     18.21376900     20.13214800   
   154       C         20.13214800     18.89735700     18.21376900   
   155       C         18.21376900     20.13214800     18.89735700   
   156       C          6.86235700     17.89123100      3.93785200   
   157       C         17.89123100      3.93785200      6.86235700   
   158       C          2.07964800     11.87373100     12.87985700   
   159       C          0.84485700      9.95535200     12.19626900   
   160       C         12.87985700      2.07964800     11.87373100   
   161       C         12.19626900      0.84485700      9.95535200   
   162       C         11.87373100     12.87985700      2.07964800   
   163       C          9.95535200     12.19626900      0.84485700   
   164       C          5.17264300      6.17876900     15.97285200   
   165       C          5.85623100      8.09714800     17.20764300   
   166       C          8.09714800     17.20764300      5.85623100   
   167       C          6.17876900     15.97285200      5.17264300   
   168       C         17.20764300      5.85623100      8.09714800   
   169       C         17.16672400     16.79123200     21.00829600   
   170       C         10.77373200     23.18422400      9.07920400   
   171       C          3.06170400      5.13172400     19.31376800   
   172       C         19.31376800      3.06170400      5.13172400   
   173       C         21.00829600     17.16672400     16.79123200   
   174       C         16.79123200     21.00829600     17.16672400   
   175       C          5.13172400     19.31376800      3.06170400   
   176       C         22.80873200     12.92077600     14.99079600   
   177       C          0.88577600     21.11420400      1.26126800   
   178       C          1.26126800      0.88577600     21.11420400   
   179       C         21.11420400      1.26126800      0.88577600   
   180       C         12.92077600     14.99079600     22.80873200   
   181       C         14.99079600     22.80873200     12.92077600   
   182       C          7.27876800      8.97329600     18.93827600   
   183       C          6.90327600      4.75623200     15.09670400   
   184       C         18.93827600      7.27876800      8.97329600   
   185       C         15.09670400      6.90327600      4.75623200   
   186       C          8.97329600     18.93827600      7.27876800   
   187       C          4.75623200     15.09670400      6.90327600   
   188       C         23.18422400      9.07920400     10.77373200   
   189       C          2.95579600     13.29626800     11.14922400   
   190       C         13.29626800     11.14922400      2.95579600   
   191       C          9.07920400     10.77373200     23.18422400   
   192       C         11.14922400      2.95579600     13.29626800   
   193       C         16.16300500     17.81420700     20.72908400   
   194       C         11.79670700     22.18050500      9.35841600   
   195       C          3.34091600      4.12800500     18.29079300   
   196       C         18.29079300      3.34091600      4.12800500   
   197       C         20.72908400     16.16300500     17.81420700   
   198       C         17.81420700     20.72908400     16.16300500   
   199       C          4.12800500     18.29079300      3.34091600   
   200       C         23.83170700     13.92449500     14.71158400   
   201       C          1.88949500     21.39341600      0.23829300   
   202       C          0.23829300      1.88949500     21.39341600   
   203       C         21.39341600      0.23829300      1.88949500   
   204       C         13.92449500     14.71158400     23.83170700   
   205       C         14.71158400     23.83170700     13.92449500   
   206       C          6.25579300      8.69408400     19.94199500   
   207       C          7.90699500      5.77920700     15.37591600   
   208       C         19.94199500      6.25579300      8.69408400   
   209       C         15.37591600      7.90699500      5.77920700   
   210       C          8.69408400     19.94199500      6.25579300   
   211       C          5.77920700     15.37591600      7.90699500   
   212       C         22.18050500      9.35841600     11.79670700   
   213       C          2.67658400     12.27329300     10.14550500   
   214       C         12.27329300     10.14550500      2.67658400   
   215       C          9.35841600     11.79670700     22.18050500   
   216       C         10.14550500      2.67658400     12.27329300   
   217       C         19.29932600     15.89101400     20.03346100   
   218       C          9.87351400      1.24682600     10.05403900   
   219       C          4.03653900      7.26432600     20.21398600   
   220       C         20.21398600      4.03653900      7.26432600   
   221       C         20.03346100     19.29932600     15.89101400   
   222       C         15.89101400     20.03346100     19.29932600   
   223       C          7.26432600     20.21398600      4.03653900   
   224       C         21.90851400     10.78817400     14.01596100   
   225       C         22.82317400     22.08903900      2.16148600   
   226       C          2.16148600     22.82317400     22.08903900   
   227       C         22.08903900      2.16148600     22.82317400   
   228       C         10.78817400     14.01596100     21.90851400   
   229       C         14.01596100     21.90851400     10.78817400   
   230       C          8.17898600      7.99846100     16.80567400   
   231       C          4.77067400      3.85601400     16.07153900   
   232       C         16.80567400      8.17898600      7.99846100   
   233       C         16.07153900      4.77067400      3.85601400   
   234       C          7.99846100     16.80567400      8.17898600   
   235       C          3.85601400     16.07153900      4.77067400   
   236       C          1.24682600     10.05403900      9.87351400   
   237       C          1.98096100     14.19648600     13.28182600   
   238       C         14.19648600     13.28182600      1.98096100   
   239       C         10.05403900      9.87351400      1.24682600   
   240       C         13.28182600      1.98096100     14.19648600   
   241       C         16.88029100     15.47701000     21.48728900   
   242       C          9.45951000     22.89779100      8.60021100   
   243       C          2.58271100      4.84529100     20.62799000   
   244       C         20.62799000      2.58271100      4.84529100   
   245       C         21.48728900     16.88029100     15.47701000   
   246       C         15.47701000     21.48728900     16.88029100   
   247       C          4.84529100     20.62799000      2.58271100   
   248       C         21.49451000     13.20720900     15.46978900   
   249       C          1.17220900     20.63521100      2.57549000   
   250       C          2.57549000      1.17220900     20.63521100   
   251       C         20.63521100      2.57549000      1.17220900   
   252       C         13.20720900     15.46978900     21.49451000   
   253       C         15.46978900     21.49451000     13.20720900   
   254       C          8.59299000      9.45228900     19.22470900   
   255       C          7.18970900      3.44201000     14.61771100   
   256       C         19.22470900      8.59299000      9.45228900   
   257       C         14.61771100      7.18970900      3.44201000   
   258       C          9.45228900     19.22470900      8.59299000   
   259       C          3.44201000     14.61771100      7.18970900   
   260       C         22.89779100      8.60021100      9.45951000   
   261       C          3.43478900     14.61049000     10.86279100   
   262       C         14.61049000     10.86279100      3.43478900   
   263       C          8.60021100      9.45951000     22.89779100   
   264       C         10.86279100      3.43478900     14.61049000   
   265       B         18.45687600     16.94528000     20.56300100   
   266       B         10.92778000      0.40437600      9.52449900   
   267       B          3.50699900      6.42187600     19.15972000   
   268       B         19.15972000      3.50699900      6.42187600   
   269       B         20.56300100     18.45687600     16.94528000   
   270       B         16.94528000     20.56300100     18.45687600   
   271       B          6.42187600     19.15972000      3.50699900   
   272       B         22.96278000     11.63062400     14.54550100   
   273       B         23.66562400     21.55949900      1.10722000   
   274       B          1.10722000     23.66562400     21.55949900   
   275       B         21.55949900      1.10722000     23.66562400   
   276       B         11.63062400     14.54550100     22.96278000   
   277       B         14.54550100     22.96278000     11.63062400   
   278       B          7.12472000      8.52800100     17.64812400   
   279       B          5.61312400      4.91028000     15.54199900   
   280       B         17.64812400      7.12472000      8.52800100   
   281       B         15.54199900      5.61312400      4.91028000   
   282       B          8.52800100     17.64812400      7.12472000   
   283       B          4.91028000     15.54199900      5.61312400   
   284       B          0.40437600      9.52449900     10.92778000   
   285       B          2.51050100     13.14222000     12.43937600   
   286       B         13.14222000     12.43937600      2.51050100   
   287       B          9.52449900     10.92778000      0.40437600   
   288       B         12.43937600      2.51050100     13.14222000   
   289       H         13.45031600     21.59801100     17.55184400   
   290       H         15.58051100     19.46781600     12.53565600   
   291       H          6.51815600      1.41531600     14.50698900   
   292       H         14.50698900      6.51815600      1.41531600   
   293       H         17.55184400     13.45031600     21.59801100   
   294       H         21.59801100     17.55184400     13.45031600   
   295       H          1.41531600     14.50698900      6.51815600   
   296       H          3.54551100     16.63718400     11.53434400   
   297       H          4.60218400      0.50065600     20.52448900   
   298       H         20.52448900      4.60218400      0.50065600   
   299       H          0.50065600     20.52448900      4.60218400   
   300       H         16.63718400     11.53434400      3.54551100   
   301       H         11.53434400      3.54551100     16.63718400   
   302       H          2.47198900      5.51684400     22.65468400   
   303       H         10.61968400      9.56301100     18.55315600   
   304       H         22.65468400      2.47198900      5.51684400   
   305       H         18.55315600     10.61968400      9.56301100   
   306       H          5.51684400     22.65468400      2.47198900   
   307       H          9.56301100     18.55315600     10.61968400   
   308       H         19.46781600     12.53565600     15.58051100   
   309       H         23.56934400      8.48948900      7.43281600   
   310       H          8.48948900      7.43281600     23.56934400   
   311       H         12.53565600     15.58051100     19.46781600   
   312       H          7.43281600     23.56934400      8.48948900   
   313       H         13.74878400     20.12733400     19.49910700   
   314       H         14.10983400     19.76628400     10.58839300   
   315       H          4.57089300      1.71378400     15.97766600   
   316       H         15.97766600      4.57089300      1.71378400   
   317       H         19.49910700     13.74878400     20.12733400   
   318       H         20.12733400     19.49910700     13.74878400   
   319       H          1.71378400     15.97766600      4.57089300   
   320       H          2.07483400     16.33871600     13.48160700   
   321       H          4.30371600     22.62339300     21.99516600   
   322       H         21.99516600      4.30371600     22.62339300   
   323       H         22.62339300     21.99516600      4.30371600   
   324       H         16.33871600     13.48160700      2.07483400   
   325       H         13.48160700      2.07483400     16.33871600   
   326       H          3.94266600      7.46410700     22.35621600   
   327       H         10.32121600      8.09233400     16.60589300   
   328       H         22.35621600      3.94266600      7.46410700   
   329       H         16.60589300     10.32121600      8.09233400   
   330       H          7.46410700     22.35621600      3.94266600   
   331       H          8.09233400     16.60589300     10.32121600   
   332       H         19.76628400     10.58839300     14.10983400   
   333       H          1.44660700      9.96016600      7.73128400   
   334       H          9.96016600      7.73128400      1.44660700   
   335       H         10.58839300     14.10983400     19.76628400   
   336       H          7.73128400      1.44660700      9.96016600   
   337       H         14.00392600     17.89845200     20.33674300   
   338       H         11.88095200     20.02142600      9.75075700   
   339       H          3.73325700      1.96892600     18.20654800   
   340       H         18.20654800      3.73325700      1.96892600   
   341       H         20.33674300     14.00392600     17.89845200   
   342       H         17.89845200     20.33674300     14.00392600   
   343       H          1.96892600     18.20654800      3.73325700   
   344       H         23.91595200     16.08357400     14.31924300   
   345       H          4.04857400     21.78575700      0.15404800   
   346       H          0.15404800      4.04857400     21.78575700   
   347       H         21.78575700      0.15404800      4.04857400   
   348       H         16.08357400     14.31924300     23.91595200   
   349       H         14.31924300     23.91595200     16.08357400   
   350       H          6.17154800      8.30174300     22.10107400   
   351       H         10.06607400      5.86345200     15.76825700   
   352       H         22.10107400      6.17154800      8.30174300   
   353       H         15.76825700     10.06607400      5.86345200   
   354       H          8.30174300     22.10107400      6.17154800   
   355       H          5.86345200     15.76825700     10.06607400   
   356       H         20.02142600      9.75075700     11.88095200   
   357       H          2.28424300     12.18904800      7.98642600   
   358       H         12.18904800      7.98642600      2.28424300   
   359       H          9.75075700     11.88095200     20.02142600   
   360       H          7.98642600      2.28424300     12.18904800   
   361      Tv         24.07000000      0.00000000      0.00000000   
   362      Tv          0.00000000     24.07000000      0.00000000   
   363      Tv          0.00000000      0.00000000     24.07000000   


                   THE SYSTEM IS A SOLID


                UNIT CELL TRANSLATION VECTORS

              X                Y              Z
    T1 =    24.0700000      0.0000000      0.0000000
    T2 =     0.0000000     24.0700000      0.0000000
    T3 =     0.0000000      0.0000000     24.0700000


          CARTESIAN COORDINATES 

    NO.       ATOM           X           Y           Z

     1         C         17.7661     14.4613     21.2297
     2         C          8.4438     23.7836      8.8578
     3         C          2.8403      5.7311     21.6437
     4         C         21.6437      2.8403      5.7311
     5         C         21.2297     17.7661     14.4613
     6         C         14.4613     21.2297     17.7661
     7         C          5.7311     21.6437      2.8403
     8         C         20.4788     12.3214     15.2122
     9         C          0.2864     20.8928      3.5912
    10         C          3.5912      0.2864     20.8928
    11         C         20.8928      3.5912      0.2864
    12         C         12.3214     15.2122     20.4788
    13         C         15.2122     20.4788     12.3214
    14         C          9.6087      9.1947     18.3389
    15         C          6.3039      2.4263     14.8753
    16         C         18.3389      9.6087      9.1947
    17         C         14.8753      6.3039      2.4263
    18         C          9.1947     18.3389      9.6087
    19         C          2.4263     14.8753      6.3039
    20         C         23.7836      8.8578      8.4438
    21         C          3.1772     15.6262     11.7486
    22         C         15.6262     11.7486      3.1772
    23         C          8.8578      8.4438     23.7836
    24         C         11.7486      3.1772     15.6262
    25         C         18.9407     14.6370     20.4210
    26         C          8.6195      0.8882      9.6665
    27         C          3.6490      6.9057     21.4680
    28         C         21.4680      3.6490      6.9057
    29         C         20.4210     18.9407     14.6370
    30         C         14.6370     20.4210     18.9407
    31         C          6.9057     21.4680      3.6490
    32         C         20.6545     11.1468     14.4035
    33         C         23.1818     21.7015      3.4155
    34         C          3.4155     23.1818     21.7015
    35         C         21.7015      3.4155     23.1818
    36         C         11.1468     14.4035     20.6545
    37         C         14.4035     20.6545     11.1468
    38         C          9.4330      8.3860     17.1643
    39         C          5.1293      2.6020     15.6840
    40         C         17.1643      9.4330      8.3860
    41         C         15.6840      5.1293      2.6020
    42         C          8.3860     17.1643      9.4330
    43         C          2.6020     15.6840      5.1293
    44         C          0.8882      9.6665      8.6195
    45         C          2.3685     15.4505     12.9232
    46         C         15.4505     12.9232      2.3685
    47         C          9.6665      8.6195      0.8882
    48         C         12.9232      2.3685     15.4505
    49         C         14.7934     17.3039     20.8133
    50         C         11.2864     20.8109      9.2742
    51         C          3.2567      2.7584     18.8011
    52         C         18.8011      3.2567      2.7584
    53         C         20.8133     14.7934     17.3039
    54         C         17.3039     20.8133     14.7934
    55         C          2.7584     18.8011      3.2567
    56         C         23.3214     15.2941     14.7958
    57         C          3.2591     21.3092      0.7486
    58         C          0.7486      3.2591     21.3092
    59         C         21.3092      0.7486      3.2591
    60         C         15.2941     14.7958     23.3214
    61         C         14.7958     23.3214     15.2941
    62         C          6.7661      8.7783     21.3116
    63         C          9.2766      5.2689     15.2917
    64         C         21.3116      6.7661      8.7783
    65         C         15.2917      9.2766      5.2689
    66         C          8.7783     21.3116      6.7661
    67         C          5.2689     15.2917      9.2766
    68         C         20.8109      9.2742     11.2864
    69         C          2.7608     12.7836      8.7759
    70         C         12.7836      8.7759      2.7608
    71         C          9.2742     11.2864     20.8109
    72         C          8.7759      2.7608     12.7836
    73         C         15.5588     15.3831     22.1420
    74         C          9.3656     21.5763      7.9455
    75         C          1.9280      3.5238     20.7219
    76         C         20.7219      1.9280      3.5238
    77         C         22.1420     15.5588     15.3831
    78         C         15.3831     22.1420     15.5588
    79         C          3.5238     20.7219      1.9280
    80         C         21.4006     14.5287     16.1245
    81         C          2.4937     19.9805      2.6694
    82         C          2.6694      2.4937     19.9805
    83         C         19.9805      2.6694      2.4937
    84         C         14.5287     16.1245     21.4006
    85         C         16.1245     21.4006     14.5287
    86         C          8.6869     10.1070     20.5462
    87         C          8.5112      3.3481     13.9630
    88         C         20.5462      8.6869     10.1070
    89         C         13.9630      8.5112      3.3481
    90         C         10.1070     20.5462      8.6869
    91         C          3.3481     13.9630      8.5112
    92         C         21.5763      7.9455      9.3656
    93         C          4.0895     14.7044      9.5413
    94         C         14.7044      9.5413      4.0895
    95         C          7.9455      9.3656     21.5763
    96         C          9.5413      4.0895     14.7044
    97         C         19.2175     19.9805     17.9851
    98         C         13.9630      1.1650     12.1024
    99         C          6.0849      7.1825     16.1245
   100         C         16.1245      6.0849      7.1825
   101         C         17.9851     19.2175     19.9805
   102         C         19.9805     17.9851     19.2175
   103         C          7.1825     16.1245      6.0849
   104         C          1.9280     10.8700     11.9676
   105         C         22.9050      0.0674     22.1420
   106         C         22.1420     22.9050      0.0674
   107         C          0.0674     22.1420     22.9050
   108         C         10.8700     11.9676      1.9280
   109         C         11.9676      1.9280     10.8700
   110         C          4.0895      5.9501     16.8875
   111         C          4.8525      7.9455     18.1199
   112         C         16.8875      4.0895      5.9501
   113         C         18.1199      4.8525      7.9455
   114         C          5.9501     16.8875      4.0895
   115         C          7.9455     18.1199      4.8525
   116         C          1.1650     12.1024     13.9630
   117         C         24.0026     10.1070     13.2000
   118         C         10.1070     13.2000     24.0026
   119         C         12.1024     13.9630      1.1650
   120         C         13.2000     24.0026     10.1070
   121         C         16.5481     19.0201     20.1899
   122         C         13.0026     22.5656      9.8976
   123         C          3.8801      4.5131     17.0849
   124         C         17.0849      3.8801      4.5131
   125         C         20.1899     16.5481     19.0201
   126         C         19.0201     20.1899     16.5481
   127         C          4.5131     17.0849      3.8801
   128         C          0.9676     13.5394     14.1724
   129         C          1.5044     21.9326     23.1024
   130         C         23.1024      1.5044     21.9326
   131         C         21.9326     23.1024      1.5044
   132         C         13.5394     14.1724      0.9676
   133         C         14.1724      0.9676     13.5394
   134         C          5.0499      8.1549     19.5569
   135         C          7.5219      6.9851     15.9151
   136         C         19.5569      5.0499      8.1549
   137         C         15.9151      7.5219      6.9851
   138         C          8.1549     19.5569      5.0499
   139         C          6.9851     15.9151      7.5219
   140         C         22.5656      9.8976     13.0026
   141         C          2.1374     11.0674     10.5306
   142         C         11.0674     10.5306      2.1374
   143         C          9.8976     13.0026     22.5656
   144         C         10.5306      2.1374     11.0674
   145         C         23.2251     21.9904     23.9087
   146         C         15.9729      5.1726      6.1788
   147         C          0.1613     11.1901     14.1146
   148         C         14.1146      0.1613     11.1901
   149         C         23.9087     23.2251     21.9904
   150         C         21.9904     23.9087     23.2251
   151         C         11.1901     14.1146      0.1613
   152         C          3.9379      6.8624     17.8912
   153         C         18.8974     18.2138     20.1321
   154         C         20.1321     18.8974     18.2138
   155         C         18.2138     20.1321     18.8974
   156         C          6.8624     17.8912      3.9379
   157         C         17.8912      3.9379      6.8624
   158         C          2.0796     11.8737     12.8799
   159         C          0.8449      9.9554     12.1963
   160         C         12.8799      2.0796     11.8737
   161         C         12.1963      0.8449      9.9554
   162         C         11.8737     12.8799      2.0796
   163         C          9.9554     12.1963      0.8449
   164         C          5.1726      6.1788     15.9729
   165         C          5.8562      8.0971     17.2076
   166         C          8.0971     17.2076      5.8562
   167         C          6.1788     15.9729      5.1726
   168         C         17.2076      5.8562      8.0971
   169         C         17.1667     16.7912     21.0083
   170         C         10.7737     23.1842      9.0792
   171         C          3.0617      5.1317     19.3138
   172         C         19.3138      3.0617      5.1317
   173         C         21.0083     17.1667     16.7912
   174         C         16.7912     21.0083     17.1667
   175         C          5.1317     19.3138      3.0617
   176         C         22.8087     12.9208     14.9908
   177         C          0.8858     21.1142      1.2613
   178         C          1.2613      0.8858     21.1142
   179         C         21.1142      1.2613      0.8858
   180         C         12.9208     14.9908     22.8087
   181         C         14.9908     22.8087     12.9208
   182         C          7.2788      8.9733     18.9383
   183         C          6.9033      4.7562     15.0967
   184         C         18.9383      7.2788      8.9733
   185         C         15.0967      6.9033      4.7562
   186         C          8.9733     18.9383      7.2788
   187         C          4.7562     15.0967      6.9033
   188         C         23.1842      9.0792     10.7737
   189         C          2.9558     13.2963     11.1492
   190         C         13.2963     11.1492      2.9558
   191         C          9.0792     10.7737     23.1842
   192         C         11.1492      2.9558     13.2963
   193         C         16.1630     17.8142     20.7291
   194         C         11.7967     22.1805      9.3584
   195         C          3.3409      4.1280     18.2908
   196         C         18.2908      3.3409      4.1280
   197         C         20.7291     16.1630     17.8142
   198         C         17.8142     20.7291     16.1630
   199         C          4.1280     18.2908      3.3409
   200         C         23.8317     13.9245     14.7116
   201         C          1.8895     21.3934      0.2383
   202         C          0.2383      1.8895     21.3934
   203         C         21.3934      0.2383      1.8895
   204         C         13.9245     14.7116     23.8317
   205         C         14.7116     23.8317     13.9245
   206         C          6.2558      8.6941     19.9420
   207         C          7.9070      5.7792     15.3759
   208         C         19.9420      6.2558      8.6941
   209         C         15.3759      7.9070      5.7792
   210         C          8.6941     19.9420      6.2558
   211         C          5.7792     15.3759      7.9070
   212         C         22.1805      9.3584     11.7967
   213         C          2.6766     12.2733     10.1455
   214         C         12.2733     10.1455      2.6766
   215         C          9.3584     11.7967     22.1805
   216         C         10.1455      2.6766     12.2733
   217         C         19.2993     15.8910     20.0335
   218         C          9.8735      1.2468     10.0540
   219         C          4.0365      7.2643     20.2140
   220         C         20.2140      4.0365      7.2643
   221         C         20.0335     19.2993     15.8910
   222         C         15.8910     20.0335     19.2993
   223         C          7.2643     20.2140      4.0365
   224         C         21.9085     10.7882     14.0160
   225         C         22.8232     22.0890      2.1615
   226         C          2.1615     22.8232     22.0890
   227         C         22.0890      2.1615     22.8232
   228         C         10.7882     14.0160     21.9085
   229         C         14.0160     21.9085     10.7882
   230         C          8.1790      7.9985     16.8057
   231         C          4.7707      3.8560     16.0715
   232         C         16.8057      8.1790      7.9985
   233         C         16.0715      4.7707      3.8560
   234         C          7.9985     16.8057      8.1790
   235         C          3.8560     16.0715      4.7707
   236         C          1.2468     10.0540      9.8735
   237         C          1.9810     14.1965     13.2818
   238         C         14.1965     13.2818      1.9810
   239         C         10.0540      9.8735      1.2468
   240         C         13.2818      1.9810     14.1965
   241         C         16.8803     15.4770     21.4873
   242         C          9.4595     22.8978      8.6002
   243         C          2.5827      4.8453     20.6280
   244         C         20.6280      2.5827      4.8453
   245         C         21.4873     16.8803     15.4770
   246         C         15.4770     21.4873     16.8803
   247         C          4.8453     20.6280      2.5827
   248         C         21.4945     13.2072     15.4698
   249         C          1.1722     20.6352      2.5755
   250         C          2.5755      1.1722     20.6352
   251         C         20.6352      2.5755      1.1722
   252         C         13.2072     15.4698     21.4945
   253         C         15.4698     21.4945     13.2072
   254         C          8.5930      9.4523     19.2247
   255         C          7.1897      3.4420     14.6177
   256         C         19.2247      8.5930      9.4523
   257         C         14.6177      7.1897      3.4420
   258         C          9.4523     19.2247      8.5930
   259         C          3.4420     14.6177      7.1897
   260         C         22.8978      8.6002      9.4595
   261         C          3.4348     14.6105     10.8628
   262         C         14.6105     10.8628      3.4348
   263         C          8.6002      9.4595     22.8978
   264         C         10.8628      3.4348     14.6105
   265         B         18.4569     16.9453     20.5630
   266         B         10.9278      0.4044      9.5245
   267         B          3.5070      6.4219     19.1597
   268         B         19.1597      3.5070      6.4219
   269         B         20.5630     18.4569     16.9453
   270         B         16.9453     20.5630     18.4569
   271         B          6.4219     19.1597      3.5070
   272         B         22.9628     11.6306     14.5455
   273         B         23.6656     21.5595      1.1072
   274         B          1.1072     23.6656     21.5595
   275         B         21.5595      1.1072     23.6656
   276         B         11.6306     14.5455     22.9628
   277         B         14.5455     22.9628     11.6306
   278         B          7.1247      8.5280     17.6481
   279         B          5.6131      4.9103     15.5420
   280         B         17.6481      7.1247      8.5280
   281         B         15.5420      5.6131      4.9103
   282         B          8.5280     17.6481      7.1247
   283         B          4.9103     15.5420      5.6131
   284         B          0.4044      9.5245     10.9278
   285         B          2.5105     13.1422     12.4394
   286         B         13.1422     12.4394      2.5105
   287         B          9.5245     10.9278      0.4044
   288         B         12.4394      2.5105     13.1422
   289         H         13.4503     21.5980     17.5518
   290         H         15.5805     19.4678     12.5357
   291         H          6.5182      1.4153     14.5070
   292         H         14.5070      6.5182      1.4153
   293         H         17.5518     13.4503     21.5980
   294         H         21.5980     17.5518     13.4503
   295         H          1.4153     14.5070      6.5182
   296         H          3.5455     16.6372     11.5343
   297         H          4.6022      0.5007     20.5245
   298         H         20.5245      4.6022      0.5007
   299         H          0.5007     20.5245      4.6022
   300         H         16.6372     11.5343      3.5455
   301         H         11.5343      3.5455     16.6372
   302         H          2.4720      5.5168     22.6547
   303         H         10.6197      9.5630     18.5532
   304         H         22.6547      2.4720      5.5168
   305         H         18.5532     10.6197      9.5630
   306         H          5.5168     22.6547      2.4720
   307         H          9.5630     18.5532     10.6197
   308         H         19.4678     12.5357     15.5805
   309         H         23.5693      8.4895      7.4328
   310         H          8.4895      7.4328     23.5693
   311         H         12.5357     15.5805     19.4678
   312         H          7.4328     23.5693      8.4895
   313         H         13.7488     20.1273     19.4991
   314         H         14.1098     19.7663     10.5884
   315         H          4.5709      1.7138     15.9777
   316         H         15.9777      4.5709      1.7138
   317         H         19.4991     13.7488     20.1273
   318         H         20.1273     19.4991     13.7488
   319         H          1.7138     15.9777      4.5709
   320         H          2.0748     16.3387     13.4816
   321         H          4.3037     22.6234     21.9952
   322         H         21.9952      4.3037     22.6234
   323         H         22.6234     21.9952      4.3037
   324         H         16.3387     13.4816      2.0748
   325         H         13.4816      2.0748     16.3387
   326         H          3.9427      7.4641     22.3562
   327         H         10.3212      8.0923     16.6059
   328         H         22.3562      3.9427      7.4641
   329         H         16.6059     10.3212      8.0923
   330         H          7.4641     22.3562      3.9427
   331         H          8.0923     16.6059     10.3212
   332         H         19.7663     10.5884     14.1098
   333         H          1.4466      9.9602      7.7313
   334         H          9.9602      7.7313      1.4466
   335         H         10.5884     14.1098     19.7663
   336         H          7.7313      1.4466      9.9602
   337         H         14.0039     17.8985     20.3367
   338         H         11.8810     20.0214      9.7508
   339         H          3.7333      1.9689     18.2065
   340         H         18.2065      3.7333      1.9689
   341         H         20.3367     14.0039     17.8985
   342         H         17.8985     20.3367     14.0039
   343         H          1.9689     18.2065      3.7333
   344         H         23.9160     16.0836     14.3192
   345         H          4.0486     21.7858      0.1540
   346         H          0.1540      4.0486     21.7858
   347         H         21.7858      0.1540      4.0486
   348         H         16.0836     14.3192     23.9160
   349         H         14.3192     23.9160     16.0836
   350         H          6.1715      8.3017     22.1011
   351         H         10.0661      5.8635     15.7683
   352         H         22.1011      6.1715      8.3017
   353         H         15.7683     10.0661      5.8635
   354         H          8.3017     22.1011      6.1715
   355         H          5.8635     15.7683     10.0661
   356         H         20.0214      9.7508     11.8810
   357         H          2.2842     12.1890      7.9864
   358         H         12.1890      7.9864      2.2842
   359         H          9.7508     11.8810     20.0214
   360         H          7.9864      2.2842     12.1890

 General Reference for PM7:
 "Optimization of Parameters for Semiempirical Methods VI: More Modifications to the 
 NDDO Approximations and Re-optimization of Parameters", J. J. P. Stewart, J. Mol. Mod., 1:32, 19 (2013)
 https://link.springer.com/article/10.1007/s00894-012-1667-x

           Empirical Formula: C264 H72 B24  =   360 atoms



      RHF CALCULATION, NO. OF DOUBLY OCCUPIED LEVELS = 600


 -------------------------------------------------------------------------------
 PM7 CHARGE=0 NOOPT




     NO PARAMETERS MARKED FOR OPTIMIZATION, SO 1SCF WAS USED  
     SCF FIELD WAS ACHIEVED                                   


                              PM7 CALCULATION
                                                       MOPAC v22.1.0 Linux
                                                       Wed Jan 31 16:26:32 2024




          FINAL HEAT OF FORMATION =       3278.41678 KCAL/MOL =   13716.89579 KJ/MOL
          H.o.F. per unit cell    =        136.60070 KCAL, for 24 unit cells, unit cell = C11 H3 B1



          IONIZATION POTENTIAL    =          8.141709 EV
          HOMO LUMO ENERGIES (EV) =         -8.142 -4.801
          NO. OF FILLED LEVELS    =        600
          MOLECULAR WEIGHT        =       3502.9128

                   THE SYSTEM IS A SOLID


                UNIT CELL TRANSLATION VECTORS

              X                Y              Z
    T1 =    24.0700000      0.0000000      0.0000000
    T2 =     0.0000000     24.0700000      0.0000000
    T3 =     0.0000000      0.0000000     24.0700000

          VOLUME OF UNIT CELL     =      13945.313 CUBIC ANGSTROMS

          DENSITY                 =          0.417 GRAMS/CC
                              A   =         24.070 ANGSTROMS
                              B   =         24.070 ANGSTROMS
                              C   =         24.070 ANGSTROMS
                            ALPHA =         90.000 DEGREES
                            BETA  =         90.000 DEGREES
                            GAMMA =         90.000 DEGREES



          SCF CALCULATIONS        =          1

          WALL-CLOCK TIME         =          5 MINUTES AND 6.164 SECONDS
          COMPUTATION TIME        =          5 MINUTES AND 6.145 SECONDS




   ATOM   CHEMICAL          X               Y               Z
  NUMBER   SYMBOL      (ANGSTROMS)     (ANGSTROMS)     (ANGSTROMS)

     1       C         17.76606700     14.46125600     21.22974000   
     2       C          8.44375600     23.78356700      8.85776000   
     3       C          2.84026000      5.73106700     21.64374400   
     4       C         21.64374400      2.84026000      5.73106700   
     5       C         21.22974000     17.76606700     14.46125600   
     6       C         14.46125600     21.22974000     17.76606700   
     7       C          5.73106700     21.64374400      2.84026000   
     8       C         20.47875600     12.32143300     15.21224000   
     9       C          0.28643300     20.89276000      3.59124400   
    10       C          3.59124400      0.28643300     20.89276000   
    11       C         20.89276000      3.59124400      0.28643300   
    12       C         12.32143300     15.21224000     20.47875600   
    13       C         15.21224000     20.47875600     12.32143300   
    14       C          9.60874400      9.19474000     18.33893300   
    15       C          6.30393300      2.42625600     14.87526000   
    16       C         18.33893300      9.60874400      9.19474000   
    17       C         14.87526000      6.30393300      2.42625600   
    18       C          9.19474000     18.33893300      9.60874400   
    19       C          2.42625600     14.87526000      6.30393300   
    20       C         23.78356700      8.85776000      8.44375600   
    21       C          3.17724000     15.62624400     11.74856700   
    22       C         15.62624400     11.74856700      3.17724000   
    23       C          8.85776000      8.44375600     23.78356700   
    24       C         11.74856700      3.17724000     15.62624400   
    25       C         18.94068300     14.63696700     20.42098800   
    26       C          8.61946700      0.88818300      9.66651200   
    27       C          3.64901200      6.90568300     21.46803300   
    28       C         21.46803300      3.64901200      6.90568300   
    29       C         20.42098800     18.94068300     14.63696700   
    30       C         14.63696700     20.42098800     18.94068300   
    31       C          6.90568300     21.46803300      3.64901200   
    32       C         20.65446700     11.14681700     14.40348800   
    33       C         23.18181700     21.70151200      3.41553300   
    34       C          3.41553300     23.18181700     21.70151200   
    35       C         21.70151200      3.41553300     23.18181700   
    36       C         11.14681700     14.40348800     20.65446700   
    37       C         14.40348800     20.65446700     11.14681700   
    38       C          9.43303300      8.38598800     17.16431700   
    39       C          5.12931700      2.60196700     15.68401200   
    40       C         17.16431700      9.43303300      8.38598800   
    41       C         15.68401200      5.12931700      2.60196700   
    42       C          8.38598800     17.16431700      9.43303300   
    43       C          2.60196700     15.68401200      5.12931700   
    44       C          0.88818300      9.66651200      8.61946700   
    45       C          2.36848800     15.45053300     12.92318300   
    46       C         15.45053300     12.92318300      2.36848800   
    47       C          9.66651200      8.61946700      0.88818300   
    48       C         12.92318300      2.36848800     15.45053300   
    49       C         14.79342200     17.30392300     20.81332900   
    50       C         11.28642300     20.81092200      9.27417100   
    51       C          3.25667100      2.75842200     18.80107700   
    52       C         18.80107700      3.25667100      2.75842200   
    53       C         20.81332900     14.79342200     17.30392300   
    54       C         17.30392300     20.81332900     14.79342200   
    55       C          2.75842200     18.80107700      3.25667100   
    56       C         23.32142300     15.29407800     14.79582900   
    57       C          3.25907800     21.30917100      0.74857700   
    58       C          0.74857700      3.25907800     21.30917100   
    59       C         21.30917100      0.74857700      3.25907800   
    60       C         15.29407800     14.79582900     23.32142300   
    61       C         14.79582900     23.32142300     15.29407800   
    62       C          6.76607700      8.77832900     21.31157800   
    63       C          9.27657800      5.26892300     15.29167100   
    64       C         21.31157800      6.76607700      8.77832900   
    65       C         15.29167100      9.27657800      5.26892300   
    66       C          8.77832900     21.31157800      6.76607700   
    67       C          5.26892300     15.29167100      9.27657800   
    68       C         20.81092200      9.27417100     11.28642300   
    69       C          2.76082900     12.78357700      8.77592200   
    70       C         12.78357700      8.77592200      2.76082900   
    71       C          9.27417100     11.28642300     20.81092200   
    72       C          8.77592200      2.76082900     12.78357700   
    73       C         15.55884800     15.38313700     22.14199300   
    74       C          9.36563700     21.57634800      7.94550700   
    75       C          1.92800700      3.52384800     20.72186300   
    76       C         20.72186300      1.92800700      3.52384800   
    77       C         22.14199300     15.55884800     15.38313700   
    78       C         15.38313700     22.14199300     15.55884800   
    79       C          3.52384800     20.72186300      1.92800700   
    80       C         21.40063700     14.52865200     16.12449300   
    81       C          2.49365200     19.98050700      2.66936300   
    82       C          2.66936300      2.49365200     19.98050700   
    83       C         19.98050700      2.66936300      2.49365200   
    84       C         14.52865200     16.12449300     21.40063700   
    85       C         16.12449300     21.40063700     14.52865200   
    86       C          8.68686300     10.10699300     20.54615200   
    87       C          8.51115200      3.34813700     13.96300700   
    88       C         20.54615200      8.68686300     10.10699300   
    89       C         13.96300700      8.51115200      3.34813700   
    90       C         10.10699300     20.54615200      8.68686300   
    91       C          3.34813700     13.96300700      8.51115200   
    92       C         21.57634800      7.94550700      9.36563700   
    93       C          4.08949300     14.70436300      9.54134800   
    94       C         14.70436300      9.54134800      4.08949300   
    95       C          7.94550700      9.36563700     21.57634800   
    96       C          9.54134800      4.08949300     14.70436300   
    97       C         19.21748800     19.98050700     17.98510400   
    98       C         13.96300700      1.16498800     12.10239600   
    99       C          6.08489600      7.18248800     16.12449300   
   100       C         16.12449300      6.08489600      7.18248800   
   101       C         17.98510400     19.21748800     19.98050700   
   102       C         19.98050700     17.98510400     19.21748800   
   103       C          7.18248800     16.12449300      6.08489600   
   104       C          1.92800700     10.87001200     11.96760400   
   105       C         22.90501200      0.06739600     22.14199300   
   106       C         22.14199300     22.90501200      0.06739600   
   107       C          0.06739600     22.14199300     22.90501200   
   108       C         10.87001200     11.96760400      1.92800700   
   109       C         11.96760400      1.92800700     10.87001200   
   110       C          4.08949300      5.95010400     16.88751200   
   111       C          4.85251200      7.94550700     18.11989600   
   112       C         16.88751200      4.08949300      5.95010400   
   113       C         18.11989600      4.85251200      7.94550700   
   114       C          5.95010400     16.88751200      4.08949300   
   115       C          7.94550700     18.11989600      4.85251200   
   116       C          1.16498800     12.10239600     13.96300700   
   117       C         24.00260400     10.10699300     13.19998800   
   118       C         10.10699300     13.19998800     24.00260400   
   119       C         12.10239600     13.96300700      1.16498800   
   120       C         13.19998800     24.00260400     10.10699300   
   121       C         16.54812500     19.02011400     20.18991600   
   122       C         13.00261400     22.56562500      9.89758400   
   123       C          3.88008400      4.51312500     17.08488600   
   124       C         17.08488600      3.88008400      4.51312500   
   125       C         20.18991600     16.54812500     19.02011400   
   126       C         19.02011400     20.18991600     16.54812500   
   127       C          4.51312500     17.08488600      3.88008400   
   128       C          0.96761400     13.53937500     14.17241600   
   129       C          1.50437500     21.93258400     23.10238600   
   130       C         23.10238600      1.50437500     21.93258400   
   131       C         21.93258400     23.10238600      1.50437500   
   132       C         13.53937500     14.17241600      0.96761400   
   133       C         14.17241600      0.96761400     13.53937500   
   134       C          5.04988600      8.15491600     19.55687500   
   135       C          7.52187500      6.98511400     15.91508400   
   136       C         19.55687500      5.04988600      8.15491600   
   137       C         15.91508400      7.52187500      6.98511400   
   138       C          8.15491600     19.55687500      5.04988600   
   139       C          6.98511400     15.91508400      7.52187500   
   140       C         22.56562500      9.89758400     13.00261400   
   141       C          2.13741600     11.06738600     10.53062500   
   142       C         11.06738600     10.53062500      2.13741600   
   143       C          9.89758400     13.00261400     22.56562500   
   144       C         10.53062500      2.13741600     11.06738600   
   145       C         23.22514300     21.99035200     23.90873100   
   146       C         15.97285200      5.17264300      6.17876900   
   147       C          0.16126900     11.19014300     14.11464800   
   148       C         14.11464800      0.16126900     11.19014300   
   149       C         23.90873100     23.22514300     21.99035200   
   150       C         21.99035200     23.90873100     23.22514300   
   151       C         11.19014300     14.11464800      0.16126900   
   152       C          3.93785200      6.86235700     17.89123100   
   153       C         18.89735700     18.21376900     20.13214800   
   154       C         20.13214800     18.89735700     18.21376900   
   155       C         18.21376900     20.13214800     18.89735700   
   156       C          6.86235700     17.89123100      3.93785200   
   157       C         17.89123100      3.93785200      6.86235700   
   158       C          2.07964800     11.87373100     12.87985700   
   159       C          0.84485700      9.95535200     12.19626900   
   160       C         12.87985700      2.07964800     11.87373100   
   161       C         12.19626900      0.84485700      9.95535200   
   162       C         11.87373100     12.87985700      2.07964800   
   163       C          9.95535200     12.19626900      0.84485700   
   164       C          5.17264300      6.17876900     15.97285200   
   165       C          5.85623100      8.09714800     17.20764300   
   166       C          8.09714800     17.20764300      5.85623100   
   167       C          6.17876900     15.97285200      5.17264300   
   168       C         17.20764300      5.85623100      8.09714800   
   169       C         17.16672400     16.79123200     21.00829600   
   170       C         10.77373200     23.18422400      9.07920400   
   171       C          3.06170400      5.13172400     19.31376800   
   172       C         19.31376800      3.06170400      5.13172400   
   173       C         21.00829600     17.16672400     16.79123200   
   174       C         16.79123200     21.00829600     17.16672400   
   175       C          5.13172400     19.31376800      3.06170400   
   176       C         22.80873200     12.92077600     14.99079600   
   177       C          0.88577600     21.11420400      1.26126800   
   178       C          1.26126800      0.88577600     21.11420400   
   179       C         21.11420400      1.26126800      0.88577600   
   180       C         12.92077600     14.99079600     22.80873200   
   181       C         14.99079600     22.80873200     12.92077600   
   182       C          7.27876800      8.97329600     18.93827600   
   183       C          6.90327600      4.75623200     15.09670400   
   184       C         18.93827600      7.27876800      8.97329600   
   185       C         15.09670400      6.90327600      4.75623200   
   186       C          8.97329600     18.93827600      7.27876800   
   187       C          4.75623200     15.09670400      6.90327600   
   188       C         23.18422400      9.07920400     10.77373200   
   189       C          2.95579600     13.29626800     11.14922400   
   190       C         13.29626800     11.14922400      2.95579600   
   191       C          9.07920400     10.77373200     23.18422400   
   192       C         11.14922400      2.95579600     13.29626800   
   193       C         16.16300500     17.81420700     20.72908400   
   194       C         11.79670700     22.18050500      9.35841600   
   195       C          3.34091600      4.12800500     18.29079300   
   196       C         18.29079300      3.34091600      4.12800500   
   197       C         20.72908400     16.16300500     17.81420700   
   198       C         17.81420700     20.72908400     16.16300500   
   199       C          4.12800500     18.29079300      3.34091600   
   200       C         23.83170700     13.92449500     14.71158400   
   201       C          1.88949500     21.39341600      0.23829300   
   202       C          0.23829300      1.88949500     21.39341600   
   203       C         21.39341600      0.23829300      1.88949500   
   204       C         13.92449500     14.71158400     23.83170700   
   205       C         14.71158400     23.83170700     13.92449500   
   206       C          6.25579300      8.69408400     19.94199500   
   207       C          7.90699500      5.77920700     15.37591600   
   208       C         19.94199500      6.25579300      8.69408400   
   209       C         15.37591600      7.90699500      5.77920700   
   210       C          8.69408400     19.94199500      6.25579300   
   211       C          5.77920700     15.37591600      7.90699500   
   212       C         22.18050500      9.35841600     11.79670700   
   213       C          2.67658400     12.27329300     10.14550500   
   214       C         12.27329300     10.14550500      2.67658400   
   215       C          9.35841600     11.79670700     22.18050500   
   216       C         10.14550500      2.67658400     12.27329300   
   217       C         19.29932600     15.89101400     20.03346100   
   218       C          9.87351400      1.24682600     10.05403900   
   219       C          4.03653900      7.26432600     20.21398600   
   220       C         20.21398600      4.03653900      7.26432600   
   221       C         20.03346100     19.29932600     15.89101400   
   222       C         15.89101400     20.03346100     19.29932600   
   223       C          7.26432600     20.21398600      4.03653900   
   224       C         21.90851400     10.78817400     14.01596100   
   225       C         22.82317400     22.08903900      2.16148600   
   226       C          2.16148600     22.82317400     22.08903900   
   227       C         22.08903900      2.16148600     22.82317400   
   228       C         10.78817400     14.01596100     21.90851400   
   229       C         14.01596100     21.90851400     10.78817400   
   230       C          8.17898600      7.99846100     16.80567400   
   231       C          4.77067400      3.85601400     16.07153900   
   232       C         16.80567400      8.17898600      7.99846100   
   233       C         16.07153900      4.77067400      3.85601400   
   234       C          7.99846100     16.80567400      8.17898600   
   235       C          3.85601400     16.07153900      4.77067400   
   236       C          1.24682600     10.05403900      9.87351400   
   237       C          1.98096100     14.19648600     13.28182600   
   238       C         14.19648600     13.28182600      1.98096100   
   239       C         10.05403900      9.87351400      1.24682600   
   240       C         13.28182600      1.98096100     14.19648600   
   241       C         16.88029100     15.47701000     21.48728900   
   242       C          9.45951000     22.89779100      8.60021100   
   243       C          2.58271100      4.84529100     20.62799000   
   244       C         20.62799000      2.58271100      4.84529100   
   245       C         21.48728900     16.88029100     15.47701000   
   246       C         15.47701000     21.48728900     16.88029100   
   247       C          4.84529100     20.62799000      2.58271100   
   248       C         21.49451000     13.20720900     15.46978900   
   249       C          1.17220900     20.63521100      2.57549000   
   250       C          2.57549000      1.17220900     20.63521100   
   251       C         20.63521100      2.57549000      1.17220900   
   252       C         13.20720900     15.46978900     21.49451000   
   253       C         15.46978900     21.49451000     13.20720900   
   254       C          8.59299000      9.45228900     19.22470900   
   255       C          7.18970900      3.44201000     14.61771100   
   256       C         19.22470900      8.59299000      9.45228900   
   257       C         14.61771100      7.18970900      3.44201000   
   258       C          9.45228900     19.22470900      8.59299000   
   259       C          3.44201000     14.61771100      7.18970900   
   260       C         22.89779100      8.60021100      9.45951000   
   261       C          3.43478900     14.61049000     10.86279100   
   262       C         14.61049000     10.86279100      3.43478900   
   263       C          8.60021100      9.45951000     22.89779100   
   264       C         10.86279100      3.43478900     14.61049000   
   265       B         18.45687600     16.94528000     20.56300100   
   266       B         10.92778000      0.40437600      9.52449900   
   267       B          3.50699900      6.42187600     19.15972000   
   268       B         19.15972000      3.50699900      6.42187600   
   269       B         20.56300100     18.45687600     16.94528000   
   270       B         16.94528000     20.56300100     18.45687600   
   271       B          6.42187600     19.15972000      3.50699900   
   272       B         22.96278000     11.63062400     14.54550100   
   273       B         23.66562400     21.55949900      1.10722000   
   274       B          1.10722000     23.66562400     21.55949900   
   275       B         21.55949900      1.10722000     23.66562400   
   276       B         11.63062400     14.54550100     22.96278000   
   277       B         14.54550100     22.96278000     11.63062400   
   278       B          7.12472000      8.52800100     17.64812400   
   279       B          5.61312400      4.91028000     15.54199900   
   280       B         17.64812400      7.12472000      8.52800100   
   281       B         15.54199900      5.61312400      4.91028000   
   282       B          8.52800100     17.64812400      7.12472000   
   283       B          4.91028000     15.54199900      5.61312400   
   284       B          0.40437600      9.52449900     10.92778000   
   285       B          2.51050100     13.14222000     12.43937600   
   286       B         13.14222000     12.43937600      2.51050100   
   287       B          9.52449900     10.92778000      0.40437600   
   288       B         12.43937600      2.51050100     13.14222000   
   289       H         13.45031600     21.59801100     17.55184400   
   290       H         15.58051100     19.46781600     12.53565600   
   291       H          6.51815600      1.41531600     14.50698900   
   292       H         14.50698900      6.51815600      1.41531600   
   293       H         17.55184400     13.45031600     21.59801100   
   294       H         21.59801100     17.55184400     13.45031600   
   295       H          1.41531600     14.50698900      6.51815600   
   296       H          3.54551100     16.63718400     11.53434400   
   297       H          4.60218400      0.50065600     20.52448900   
   298       H         20.52448900      4.60218400      0.50065600   
   299       H          0.50065600     20.52448900      4.60218400   
   300       H         16.63718400     11.53434400      3.54551100   
   301       H         11.53434400      3.54551100     16.63718400   
   302       H          2.47198900      5.51684400     22.65468400   
   303       H         10.61968400      9.56301100     18.55315600   
   304       H         22.65468400      2.47198900      5.51684400   
   305       H         18.55315600     10.61968400      9.56301100   
   306       H          5.51684400     22.65468400      2.47198900   
   307       H          9.56301100     18.55315600     10.61968400   
   308       H         19.46781600     12.53565600     15.58051100   
   309       H         23.56934400      8.48948900      7.43281600   
   310       H          8.48948900      7.43281600     23.56934400   
   311       H         12.53565600     15.58051100     19.46781600   
   312       H          7.43281600     23.56934400      8.48948900   
   313       H         13.74878400     20.12733400     19.49910700   
   314       H         14.10983400     19.76628400     10.58839300   
   315       H          4.57089300      1.71378400     15.97766600   
   316       H         15.97766600      4.57089300      1.71378400   
   317       H         19.49910700     13.74878400     20.12733400   
   318       H         20.12733400     19.49910700     13.74878400   
   319       H          1.71378400     15.97766600      4.57089300   
   320       H          2.07483400     16.33871600     13.48160700   
   321       H          4.30371600     22.62339300     21.99516600   
   322       H         21.99516600      4.30371600     22.62339300   
   323       H         22.62339300     21.99516600      4.30371600   
   324       H         16.33871600     13.48160700      2.07483400   
   325       H         13.48160700      2.07483400     16.33871600   
   326       H          3.94266600      7.46410700     22.35621600   
   327       H         10.32121600      8.09233400     16.60589300   
   328       H         22.35621600      3.94266600      7.46410700   
   329       H         16.60589300     10.32121600      8.09233400   
   330       H          7.46410700     22.35621600      3.94266600   
   331       H          8.09233400     16.60589300     10.32121600   
   332       H         19.76628400     10.58839300     14.10983400   
   333       H          1.44660700      9.96016600      7.73128400   
   334       H          9.96016600      7.73128400      1.44660700   
   335       H         10.58839300     14.10983400     19.76628400   
   336       H          7.73128400      1.44660700      9.96016600   
   337       H         14.00392600     17.89845200     20.33674300   
   338       H         11.88095200     20.02142600      9.75075700   
   339       H          3.73325700      1.96892600     18.20654800   
   340       H         18.20654800      3.73325700      1.96892600   
   341       H         20.33674300     14.00392600     17.89845200   
   342       H         17.89845200     20.33674300     14.00392600   
   343       H          1.96892600     18.20654800      3.73325700   
   344       H         23.91595200     16.08357400     14.31924300   
   345       H          4.04857400     21.78575700      0.15404800   
   346       H          0.15404800      4.04857400     21.78575700   
   347       H         21.78575700      0.15404800      4.04857400   
   348       H         16.08357400     14.31924300     23.91595200   
   349       H         14.31924300     23.91595200     16.08357400   
   350       H          6.17154800      8.30174300     22.10107400   
   351       H         10.06607400      5.86345200     15.76825700   
   352       H         22.10107400      6.17154800      8.30174300   
   353       H         15.76825700     10.06607400      5.86345200   
   354       H          8.30174300     22.10107400      6.17154800   
   355       H          5.86345200     15.76825700     10.06607400   
   356       H         20.02142600      9.75075700     11.88095200   
   357       H          2.28424300     12.18904800      7.98642600   
   358       H         12.18904800      7.98642600      2.28424300   
   359       H          9.75075700     11.88095200     20.02142600   
   360       H          7.98642600      2.28424300     12.18904800   
   361      Tv         24.07000000      0.00000000      0.00000000   
   362      Tv          0.00000000     24.07000000      0.00000000   
   363      Tv          0.00000000      0.00000000     24.07000000   

                             CARTESIAN COORDINATES

   1    C       17.766067000    14.461256000    21.229740000
   2    C        8.443756000    23.783567000     8.857760000
   3    C        2.840260000     5.731067000    21.643744000
   4    C       21.643744000     2.840260000     5.731067000
   5    C       21.229740000    17.766067000    14.461256000
   6    C       14.461256000    21.229740000    17.766067000
   7    C        5.731067000    21.643744000     2.840260000
   8    C       20.478756000    12.321433000    15.212240000
   9    C        0.286433000    20.892760000     3.591244000
  10    C        3.591244000     0.286433000    20.892760000
  11    C       20.892760000     3.591244000     0.286433000
  12    C       12.321433000    15.212240000    20.478756000
  13    C       15.212240000    20.478756000    12.321433000
  14    C        9.608744000     9.194740000    18.338933000
  15    C        6.303933000     2.426256000    14.875260000
  16    C       18.338933000     9.608744000     9.194740000
  17    C       14.875260000     6.303933000     2.426256000
  18    C        9.194740000    18.338933000     9.608744000
  19    C        2.426256000    14.875260000     6.303933000
  20    C       23.783567000     8.857760000     8.443756000
  21    C        3.177240000    15.626244000    11.748567000
  22    C       15.626244000    11.748567000     3.177240000
  23    C        8.857760000     8.443756000    23.783567000
  24    C       11.748567000     3.177240000    15.626244000
  25    C       18.940683000    14.636967000    20.420988000
  26    C        8.619467000     0.888183000     9.666512000
  27    C        3.649012000     6.905683000    21.468033000
  28    C       21.468033000     3.649012000     6.905683000
  29    C       20.420988000    18.940683000    14.636967000
  30    C       14.636967000    20.420988000    18.940683000
  31    C        6.905683000    21.468033000     3.649012000
  32    C       20.654467000    11.146817000    14.403488000
  33    C       23.181817000    21.701512000     3.415533000
  34    C        3.415533000    23.181817000    21.701512000
  35    C       21.701512000     3.415533000    23.181817000
  36    C       11.146817000    14.403488000    20.654467000
  37    C       14.403488000    20.654467000    11.146817000
  38    C        9.433033000     8.385988000    17.164317000
  39    C        5.129317000     2.601967000    15.684012000
  40    C       17.164317000     9.433033000     8.385988000
  41    C       15.684012000     5.129317000     2.601967000
  42    C        8.385988000    17.164317000     9.433033000
  43    C        2.601967000    15.684012000     5.129317000
  44    C        0.888183000     9.666512000     8.619467000
  45    C        2.368488000    15.450533000    12.923183000
  46    C       15.450533000    12.923183000     2.368488000
  47    C        9.666512000     8.619467000     0.888183000
  48    C       12.923183000     2.368488000    15.450533000
  49    C       14.793422000    17.303923000    20.813329000
  50    C       11.286423000    20.810922000     9.274171000
  51    C        3.256671000     2.758422000    18.801077000
  52    C       18.801077000     3.256671000     2.758422000
  53    C       20.813329000    14.793422000    17.303923000
  54    C       17.303923000    20.813329000    14.793422000
  55    C        2.758422000    18.801077000     3.256671000
  56    C       23.321423000    15.294078000    14.795829000
  57    C        3.259078000    21.309171000     0.748577000
  58    C        0.748577000     3.259078000    21.309171000
  59    C       21.309171000     0.748577000     3.259078000
  60    C       15.294078000    14.795829000    23.321423000
  61    C       14.795829000    23.321423000    15.294078000
  62    C        6.766077000     8.778329000    21.311578000
  63    C        9.276578000     5.268923000    15.291671000
  64    C       21.311578000     6.766077000     8.778329000
  65    C       15.291671000     9.276578000     5.268923000
  66    C        8.778329000    21.311578000     6.766077000
  67    C        5.268923000    15.291671000     9.276578000
  68    C       20.810922000     9.274171000    11.286423000
  69    C        2.760829000    12.783577000     8.775922000
  70    C       12.783577000     8.775922000     2.760829000
  71    C        9.274171000    11.286423000    20.810922000
  72    C        8.775922000     2.760829000    12.783577000
  73    C       15.558848000    15.383137000    22.141993000
[...]
  293          H           0.161321        0.8387     0.83868
  294          H           0.156272        0.8437     0.84373
  295          H           0.147783        0.8522     0.85222
  296          H           0.160612        0.8394     0.83939
  297          H           0.154682        0.8453     0.84532
  298          H           0.155678        0.8443     0.84432
  299          H           0.159928        0.8401     0.84007
  300          H           0.147607        0.8524     0.85239
  301          H           0.156042        0.8440     0.84396
  302          H           0.152007        0.8480     0.84799
  303          H           0.157596        0.8424     0.84240
  304          H           0.156292        0.8437     0.84371
  305          H           0.154246        0.8458     0.84575
  306          H           0.148748        0.8513     0.85125
  307          H           0.148743        0.8513     0.85126
  308          H           0.156082        0.8439     0.84392
  309          H           0.154847        0.8452     0.84515
  310          H           0.149765        0.8502     0.85024
  311          H           0.148326        0.8517     0.85167
  312          H           0.158994        0.8410     0.84101
  313          H           0.143531        0.8565     0.85647
  314          H           0.142394        0.8576     0.85761
  315          H           0.168991        0.8310     0.83101
  316          H           0.146618        0.8534     0.85338
  317          H           0.146771        0.8532     0.85323
  318          H           0.170154        0.8298     0.82985
  319          H           0.142731        0.8573     0.85727
  320          H           0.146533        0.8535     0.85347
  321          H           0.142764        0.8572     0.85724
  322          H           0.170203        0.8298     0.82980
  323          H           0.146604        0.8534     0.85340
  324          H           0.142575        0.8574     0.85742
  325          H           0.167901        0.8321     0.83210
  326          H           0.141912        0.8581     0.85809
  327          H           0.146488        0.8535     0.85351
  328          H           0.169003        0.8310     0.83100
  329          H           0.143061        0.8569     0.85694
  330          H           0.142840        0.8572     0.85716
  331          H           0.142409        0.8576     0.85759
  332          H           0.169776        0.8302     0.83022
  333          H           0.143227        0.8568     0.85677
  334          H           0.142206        0.8578     0.85779
  335          H           0.143337        0.8567     0.85666
  336          H           0.146702        0.8533     0.85330
  337          H           0.180484        0.8195     0.81952
  338          H           0.179000        0.8210     0.82100
  339          H           0.161854        0.8381     0.83815
  340          H           0.171983        0.8280     0.82802
  341          H           0.171825        0.8282     0.82817
  342          H           0.163018        0.8370     0.83698
  343          H           0.171119        0.8289     0.82888
  344          H           0.171961        0.8280     0.82804
  345          H           0.179761        0.8202     0.82024
  346          H           0.162794        0.8372     0.83721
  347          H           0.171826        0.8282     0.82817
  348          H           0.170461        0.8295     0.82954
  349          H           0.161816        0.8382     0.83818
  350          H           0.178207        0.8218     0.82179
  351          H           0.171985        0.8280     0.82801
  352          H           0.162425        0.8376     0.83758
  353          H           0.179900        0.8201     0.82010
  354          H           0.171844        0.8282     0.82816
  355          H           0.170774        0.8292     0.82923
  356          H           0.162584        0.8374     0.83742
  357          H           0.180014        0.8200     0.81999
  358          H           0.170733        0.8293     0.82927
  359          H           0.172727        0.8273     0.82727
  360          H           0.172042        0.8280     0.82796


          ATOMIC ORBITAL ELECTRON POPULATIONS

     Atom    s        px        py        pz   
    1  C   1.07889   1.01374   1.07618   1.06317
    2  C   1.07990   1.07338   1.00885   1.05279
    3  C   1.08306   1.03254   0.99866   1.07082
    4  C   1.10293   1.06099   0.90886   0.95080
    5  C   1.10364   0.90422   0.94892   1.06048
    6  C   1.08200   1.07523   1.04552   1.00448
    7  C   1.08321   0.99285   1.06134   1.01858
    8  C   1.10362   1.06044   0.94890   0.90423
    9  C   1.07950   1.01088   1.05694   1.07452
   10  C   1.08231   1.07388   1.00261   1.04154
   11  C   1.10399   0.90108   1.05981   0.94775
   12  C   1.08357   0.99138   1.01586   1.06083
   13  C   1.08271   1.03610   1.07170   1.00026
   14  C   1.08057   1.07166   1.04612   1.00578
   15  C   1.10381   0.94792   1.05973   0.90138
   16  C   1.08226   1.00264   1.07347   1.04146
   17  C   1.07930   1.05893   1.01169   1.07508
   18  C   1.08305   1.01980   0.99376   1.06146
   19  C   1.08380   1.06017   1.01365   0.99071
   20  C   1.08214   1.00333   1.04301   1.07403
   21  C   1.07920   1.05980   1.07537   1.01209
   22  C   1.08406   1.05977   0.98987   1.01150
   23  C   1.08226   1.02630   1.06286   0.99683
   24  C   1.10242   0.95203   0.91171   1.06121
   25  C   1.09198   0.96311   1.03506   0.92315
   26  C   1.09007   1.03645   0.96971   0.93558
   27  C   1.08826   0.95039   0.97741   1.03507
   28  C   1.08348   1.06703   1.01480   1.00386
   29  C   1.08316   1.01760   1.00540   1.06793
   30  C   1.09135   1.03344   0.93111   0.96933
   31  C   1.08416   0.98518   1.04069   0.97484
   32  C   1.08309   1.06790   1.00557   1.01797
   33  C   1.09077   0.96731   0.93111   1.03591
   34  C   1.09030   1.03379   0.97203   0.93755
   35  C   1.08252   1.02170   1.06844   1.00767
   36  C   1.08396   0.98605   0.97590   1.04090
   37  C   1.08902   0.94519   1.03460   0.97519
   38  C   1.08884   1.03736   0.94383   0.97402
   39  C   1.08206   1.00904   1.06805   1.02402
   40  C   1.09030   0.97173   1.03396   0.93719
   41  C   1.09120   0.92827   0.96587   1.03558
   42  C   1.08417   0.97526   0.98505   1.04083
   43  C   1.08345   1.04152   0.98009   0.98782
   44  C   1.09067   0.97077   0.93499   1.03379
   45  C   1.09135   0.92733   1.03543   0.96537
   46  C   1.08313   1.04195   0.98913   0.98286
   47  C   1.08500   0.96929   1.03996   0.98183
   48  C   1.08341   1.00376   1.01449   1.06637
   49  C   1.09642   1.03363   1.01490   0.97307
   50  C   1.09948   1.00772   1.03282   0.94319
   51  C   1.08746   1.00634   1.03316   1.01536
   52  C   1.08202   1.02314   1.04510   1.02359
   53  C   1.08224   1.04208   1.02311   1.02242
   54  C   1.08621   1.01854   1.01933   1.03319
   55  C   1.10480   1.03462   0.99108   0.88339
   56  C   1.08242   1.02200   1.02339   1.04087
   57  C   1.09802   1.03318   0.95735   1.01103
   58  C   1.08607   1.01891   1.03303   1.02032
   59  C   1.08269   1.03826   1.02153   1.02327
   60  C   1.10597   1.03433   0.87063   0.98766
   61  C   1.08811   1.00024   1.01357   1.03329
   62  C   1.10078   1.00414   0.92934   1.03241
   63  C   1.08300   1.02371   1.02110   1.03646
   64  C   1.08744   1.03330   1.01540   1.00726
   65  C   1.09788   0.95982   1.03327   1.01191
   66  C   1.10372   0.89494   1.03486   0.99403
   67  C   1.10527   0.98953   0.87804   1.03441
   68  C   1.08704   1.03340   1.01147   1.01656
   69  C   1.09754   0.96280   1.01262   1.03332
   70  C   1.10502   0.99016   1.03427   0.88025
   71  C   1.10241   0.90895   0.99774   1.03526
   72  C   1.08194   1.02390   1.04663   1.02360
   73  C   1.07286   0.98800   1.01620   0.99267
   74  C   1.07609   0.98800   0.98631   0.98115
   75  C   1.07052   0.98313   0.97356   0.98301
   76  C   1.07127   0.96435   0.96819   0.96520
   77  C   1.07135   0.96736   0.96468   0.96240
   78  C   1.06928   0.99923   0.99064   0.97442
   79  C   1.08360   0.98419   0.91796   0.94986
   80  C   1.07149   0.96126   0.96474   0.96685
   81  C   1.07460   0.98707   0.98635   1.00112
   82  C   1.06982   0.99422   0.97431   0.98842
   83  C   1.07175   0.96571   0.95855   0.96438
   84  C   1.08511   0.98284   0.94451   0.90408
   85  C   1.07043   0.98357   0.98368   0.97356
   86  C   1.07788   0.97225   0.97439   0.98511
   87  C   1.07196   0.96428   0.95707   0.96509
   88  C   1.07003   0.97402   0.98986   0.98651
   89  C   1.07413   0.98852   0.98757   1.00513
   90  C   1.08234   0.95429   0.98538   0.92979
   91  C   1.08437   0.91127   0.94695   0.98366
   92  C   1.06971   0.97422   0.98804   0.99339
   93  C   1.07385   0.98936   1.00752   0.98754
   94  C   1.08415   0.91313   0.98374   0.94751
   95  C   1.08069   0.96049   0.94463   0.98670
   96  C   1.07119   0.96537   0.96878   0.96578
   97  C   1.07519   0.97109   0.98142   0.97841
   98  C   1.07474   0.98672   0.97479   0.97869
   99  C   1.06547   0.96646   1.04488   1.07466
  100  C   1.06947   1.04933   0.96870   1.03557
  101  C   1.06962   0.96792   1.03484   1.04750
  102  C   1.06562   1.07525   0.96718   1.04389
  103  C   1.06272   1.05727   1.10153   0.98034
  104  C   1.06954   1.04828   1.03498   0.96840
  105  C   1.07519   0.97146   0.97838   0.98157
  106  C   1.06567   1.07446   1.04390   0.96689
  107  C   1.06973   0.96842   1.04704   1.03422
  108  C   1.06247   1.05783   0.98088   1.10365
  109  C   1.06504   0.96724   1.07834   1.04653
  110  C   1.07499   0.98394   0.97811   0.97377
  111  C   1.06968   1.03346   1.04742   0.96957
  112  C   1.06527   1.04544   1.07733   0.96722
  113  C   1.07486   0.97855   0.97319   0.98462
  114  C   1.06290   0.97969   1.05766   1.10023
  115  C   1.06255   1.10313   0.97982   1.05947
  116  C   1.06552   1.04430   0.96689   1.07554
  117  C   1.07498   0.97821   0.98270   0.97209
  118  C   1.06255   1.10333   1.06081   0.97915
  119  C   1.06320   0.97982   1.09772   1.05556
  120  C   1.06950   1.03536   0.96944   1.04973
  121  C   1.12832   0.99167   0.89970   0.70371
  122  C   1.12741   0.89744   0.98976   0.70537
  123  C   1.07454   1.00197   0.96538   0.97970
  124  C   1.13047   0.89563   0.68250   0.98850
  125  C   1.13022   0.68284   0.98799   0.89547
  126  C   1.07275   0.98306   1.01276   0.96407
  127  C   1.12377   0.98561   0.88760   0.71092
  128  C   1.13028   0.89560   0.98840   0.68288
  129  C   1.12774   0.99076   0.70534   0.89882
  130  C   1.07305   0.98303   0.96434   1.01182
  131  C   1.12982   0.68601   0.89652   0.98836
  132  C   1.12217   0.98475   0.71806   0.88923
  133  C   1.07453   0.99937   0.97821   0.96475
  134  C   1.12631   0.89761   0.71009   0.98895
  135  C   1.12964   0.98904   0.89751   0.68882
  136  C   1.07367   0.96444   0.98018   1.00535
  137  C   1.12820   0.70272   0.99077   0.89810
  138  C   1.12503   0.70476   0.98611   0.88607
  139  C   1.12288   0.88767   0.71348   0.98476
  140  C   1.07323   0.96460   1.00904   0.98154
  141  C   1.12820   0.70301   0.89848   0.99096
  142  C   1.12295   0.88702   0.98437   0.71203
  143  C   1.12666   0.69870   0.88525   0.98727
  144  C   1.13044   0.98886   0.68406   0.89626
  145  C   1.08053   0.91239   0.89563   0.99403
  146  C   1.08103   0.89222   0.91095   0.99317
  147  C   1.07946   0.98127   0.96167   0.94161
  148  C   1.07946   0.90877   1.00535   0.91215
  149  C   1.07825   1.00645   0.91471   0.91646
  150  C   1.07947   0.94283   0.98174   0.96249
  151  C   1.09208   0.88520   0.81961   0.98427
  152  C   1.07891   0.91220   0.91460   1.00549
  153  C   1.08045   0.91272   0.99342   0.89622
  154  C   1.07973   0.94152   0.96167   0.98139
  155  C   1.07824   1.00648   0.91641   0.91402
  156  C   1.09290   0.88498   0.98313   0.81640
  157  C   1.07975   0.98099   0.93969   0.96051
  158  C   1.08082   0.89365   0.99336   0.91142
  159  C   1.07864   0.91325   0.91371   1.00585
  160  C   1.07972   0.95988   0.93909   0.98095
  161  C   1.08128   0.99350   0.91024   0.89041
  162  C   1.09378   0.98335   0.88432   0.81215
  163  C   1.09393   0.81289   0.98117   0.88508
  164  C   1.07902   0.96227   0.98188   0.94347
  165  C   1.08099   0.99461   0.89206   0.91065
  166  C   1.09376   0.81290   0.88477   0.98218
  167  C   1.09319   0.98353   0.81473   0.88469
  168  C   1.07899   0.91244   1.00569   0.91152
  169  C   1.07800   1.06036   0.95179   0.99318
  170  C   1.07879   0.94728   1.05906   0.98085
  171  C   1.08823   0.90820   1.05618   0.93768
  172  C   1.10048   0.93581   0.84559   1.05269
  173  C   1.10089   0.84248   1.05225   0.93530
  174  C   1.08698   0.94179   0.92293   1.05777
  175  C   1.08557   1.05852   0.92666   0.91822
  176  C   1.10093   0.93498   1.05243   0.84238
  177  C   1.07844   1.05954   0.98642   0.94931
  178  C   1.08733   0.94084   1.05712   0.91875
  179  C   1.10074   0.84273   0.93481   1.05191
  180  C   1.08588   1.05823   0.91377   0.92481
  181  C   1.08798   0.91030   0.93780   1.05667
  182  C   1.07935   0.94475   0.97343   1.05833
  183  C   1.10031   1.05167   0.93477   0.84506
  184  C   1.08745   1.05741   0.93957   0.91673
  185  C   1.07820   0.98880   1.05977   0.94993
  186  C   1.08558   0.92043   1.05886   0.92794
  187  C   1.08630   0.92492   0.91222   1.05837
  188  C   1.08724   1.05761   0.91931   0.94036
  189  C   1.07816   0.98973   0.95039   1.05989
  190  C   1.08666   0.92474   1.05837   0.91006
  191  C   1.08475   0.92880   0.93078   1.05926
  192  C   1.09995   1.05262   0.84873   0.93632
  193  C   1.08061   0.98107   0.97116   0.98010
  194  C   1.07708   0.97807   0.97988   1.00884
  195  C   1.07041   0.97774   0.96887   0.96018
  196  C   1.07543   0.96892   1.03186   0.99610
  197  C   1.07486   1.03622   0.99636   0.96962
  198  C   1.07105   0.95724   0.96580   0.96814
  199  C   1.07082   0.97650   0.99191   1.06743
  200  C   1.07487   0.96998   0.99595   1.03637
  201  C   1.07874   0.98035   0.99517   0.97483
  202  C   1.07117   0.95721   0.96869   0.96610
  203  C   1.07463   1.03753   0.97035   0.99572
  204  C   1.06914   0.97529   1.07896   0.99463
  205  C   1.06982   0.98256   0.96152   0.96817
  206  C   1.07537   0.98127   1.02213   0.97903
  207  C   1.07473   0.99486   0.97071   1.03607
  208  C   1.07031   0.96801   0.95980   0.97558
  209  C   1.07912   0.99254   0.98068   0.97418
  210  C   1.07232   1.05729   0.97756   0.98952
  211  C   1.07013   0.99319   1.07288   0.97610
  212  C   1.07070   0.96800   0.97109   0.95872
  213  C   1.07945   0.98982   0.97350   0.98081
  214  C   1.07036   0.99282   0.97653   1.07180
  215  C   1.07411   1.04402   0.98635   0.97865
  216  C   1.07581   0.99575   1.02833   0.96839
  217  C   1.08073   0.97098   1.05553   1.02280
  218  C   1.08212   1.05538   0.96493   1.01405
  219  C   1.08227   0.99651   0.96554   1.05419
  220  C   1.08696   1.00558   0.94002   0.96058
  221  C   1.08724   0.93735   0.95865   1.00472
  222  C   1.08233   1.05628   1.00520   0.96375
  223  C   1.08736   0.95756   1.05156   0.97438
  224  C   1.08740   1.00502   0.95881   0.93741
  225  C   1.08156   0.96713   1.01733   1.05521
  226  C   1.08215   1.05564   0.96476   1.00281
  227  C   1.08772   0.93499   1.00459   0.95667
  228  C   1.08758   0.95612   0.97389   1.05224
  229  C   1.08241   0.99871   1.05516   0.96468
  230  C   1.08294   1.05498   1.00822   0.96110
  231  C   1.08799   0.95645   1.00566   0.93516
  232  C   1.08231   0.96452   1.05590   1.00255
  233  C   1.08132   1.01932   0.96850   1.05565
  234  C   1.08748   0.97304   0.95784   1.05060
  235  C   1.08827   1.05093   0.96905   0.95447
  236  C   1.08221   0.96475   1.00373   1.05597
  237  C   1.08118   1.02013   1.05571   0.96902
  238  C   1.08874   1.05029   0.95301   0.96585
  239  C   1.08646   0.97863   1.05068   0.96190
  240  C   1.08682   0.96130   0.94138   1.00629
  241  C   1.07620   0.92873   0.97775   0.91380
  242  C   1.07490   0.98243   0.93202   0.93098
  243  C   1.07534   0.94320   0.93995   0.99146
  244  C   1.05893   0.99814   1.07739   0.99041
  245  C   1.05863   1.08123   0.99170   0.99855
  246  C   1.07916   0.98670   0.91630   0.93261
  247  C   1.06786   0.94526   1.00145   0.99373
  248  C   1.05868   0.99889   0.99153   1.08123
  249  C   1.07543   0.93068   0.92365   0.98031
  250  C   1.07794   0.98800   0.93515   0.92474
  251  C   1.05840   1.08414   0.99919   0.99219
  252  C   1.06791   0.94573   0.99794   1.00340
  253  C   1.07628   0.93723   0.99102   0.93782
  254  C   1.07406   0.98518   0.94150   0.93422
  255  C   1.05848   0.99168   0.99932   1.08364
  256  C   1.07774   0.93503   0.98912   0.92671
  257  C   1.07568   0.92051   0.92998   0.97961
  258  C   1.06768   0.99134   0.94521   1.00002
  259  C   1.06737   1.00302   0.99975   0.94662
  260  C   1.07813   0.93427   0.92347   0.98832
  261  C   1.07579   0.91909   0.97917   0.92974
  262  C   1.06708   1.00305   0.94736   1.00160
  263  C   1.06811   0.98296   0.99738   0.94365
  264  C   1.05908   0.98953   1.07504   0.99769
  265  B   0.61353   0.91794   0.97503   0.71200
  266  B   0.60994   0.97418   0.92381   0.73138
  267  B   0.58744   0.86548   0.95670   0.96405
  268  B   0.66237   1.01317   0.45811   0.85384
  269  B   0.66310   0.45400   0.85347   1.01337
  270  B   0.58932   0.96225   0.84987   0.95706
  271  B   0.58160   0.94047   0.96847   0.90260
  272  B   0.66293   1.01359   0.85347   0.45431
  273  B   0.61176   0.92107   0.72175   0.97496
  274  B   0.58896   0.96286   0.95691   0.85384
  275  B   0.66329   0.45220   1.01396   0.85466
  276  B   0.58066   0.94280   0.90657   0.96793
  277  B   0.58672   0.86798   0.96286   0.95818
  278  B   0.60820   0.97419   0.74117   0.92647
  279  B   0.66309   0.85635   1.01406   0.45206
  280  B   0.58776   0.95767   0.96229   0.86014
  281  B   0.61189   0.72054   0.92073   0.97431
  282  B   0.58200   0.90153   0.93841   0.96891
  283  B   0.57977   0.96817   0.91333   0.94213
  284  B   0.58841   0.95702   0.85608   0.96240
  285  B   0.61230   0.71834   0.97434   0.91999
  286  B   0.57903   0.96804   0.94228   0.91834
  287  B   0.58456   0.88729   0.96955   0.93510
  288  B   0.66199   0.85503   0.46014   1.01302
  289  H   0.84402
  290  H   0.84730
  291  H   0.84483
  292  H   0.83965
  293  H   0.83868
  294  H   0.84373
  295  H   0.85222
  296  H   0.83939
  297  H   0.84532
  298  H   0.84432
  299  H   0.84007
  300  H   0.85239
  301  H   0.84396
  302  H   0.84799
  303  H   0.84240
  304  H   0.84371
  305  H   0.84575
  306  H   0.85125
  307  H   0.85126
  308  H   0.84392
  309  H   0.84515
  310  H   0.85024
  311  H   0.85167
  312  H   0.84101
  313  H   0.85647
  314  H   0.85761
  315  H   0.83101
  316  H   0.85338
  317  H   0.85323
  318  H   0.82985
  319  H   0.85727
  320  H   0.85347
  321  H   0.85724
  322  H   0.82980
  323  H   0.85340
  324  H   0.85742
  325  H   0.83210
  326  H   0.85809
  327  H   0.85351
  328  H   0.83100
  329  H   0.85694
  330  H   0.85716
  331  H   0.85759
  332  H   0.83022
  333  H   0.85677
  334  H   0.85779
  335  H   0.85666
  336  H   0.85330
  337  H   0.81952
  338  H   0.82100
  339  H   0.83815
  340  H   0.82802
  341  H   0.82817
  342  H   0.83698
  343  H   0.82888
  344  H   0.82804
  345  H   0.82024
  346  H   0.83721
  347  H   0.82817
  348  H   0.82954
  349  H   0.83818
  350  H   0.82179
  351  H   0.82801
  352  H   0.83758
  353  H   0.82010
  354  H   0.82816
  355  H   0.82923
  356  H   0.83742
  357  H   0.81999
  358  H   0.82927
  359  H   0.82727
  360  H   0.82796

 **********************
 *                    *
 * JOB ENDED NORMALLY *
 *                    *
 **********************



 TOTAL JOB TIME:           306.22 SECONDS

 == MOPAC DONE ==
