 *******************************************************************************
 **                                                                           **
 **                              MOPAC v22.1.0                                **
 **                                                                           **
 *******************************************************************************
 **          Digital Object Identifier (DOI): 10.5281/zenodo.6511958          **
 **    Visit the DOI location for information on how to cite this program.    **
 *******************************************************************************

                              PM7 CALCULATION RESULTS

 *******************************************************************************
 *  CALCULATION DONE:                                Wed Jan 31 15:53:24 2024  *
 *  PM7        - The PM7 Hamiltonian to be used
 *  NOOPT      - DO NOT OPTIMIZE ANY COORDINATES
 *
 *
 *
 *                 CHARGE ON SYSTEM = 0
 *
 *
 *
 *  T=         - A TIME OF 172800.0 SECONDS REQUESTED
 *  DUMP=N     - RESTART FILE WRITTEN EVERY 7200.0 SECONDS REQUESTED
 *******************************************************************************
PM7 CHARGE=0 NOOPT


   ATOM   CHEMICAL          X               Y               Z
  NUMBER   SYMBOL      (ANGSTROMS)     (ANGSTROMS)     (ANGSTROMS)

     1       C         17.76606700     14.46125600     21.22974000   
     2       C          8.44375600     23.78356700      8.85776000   
     3       C          2.84026000      5.73106700     21.64374400   
     4       C         21.64374400      2.84026000      5.73106700   
     5       C         21.22974000     17.76606700     14.46125600   
     6       C         14.46125600     21.22974000     17.76606700   
     7       C          5.73106700     21.64374400      2.84026000   
     8       C         20.47875600     12.32143300     15.21224000   
     9       C          0.28643300     20.89276000      3.59124400   
    10       C          3.59124400      0.28643300     20.89276000   
    11       C         20.89276000      3.59124400      0.28643300   
    12       C         12.32143300     15.21224000     20.47875600   
    13       C         15.21224000     20.47875600     12.32143300   
    14       C          9.60874400      9.19474000     18.33893300   
    15       C          6.30393300      2.42625600     14.87526000   
    16       C         18.33893300      9.60874400      9.19474000   
    17       C         14.87526000      6.30393300      2.42625600   
    18       C          9.19474000     18.33893300      9.60874400   
    19       C          2.42625600     14.87526000      6.30393300   
    20       C         23.78356700      8.85776000      8.44375600   
    21       C          3.17724000     15.62624400     11.74856700   
    22       C         15.62624400     11.74856700      3.17724000   
    23       C          8.85776000      8.44375600     23.78356700   
    24       C         11.74856700      3.17724000     15.62624400   
    25       C         18.94068300     14.63696700     20.42098800   
    26       C          8.61946700      0.88818300      9.66651200   
    27       C          3.64901200      6.90568300     21.46803300   
    28       C         21.46803300      3.64901200      6.90568300   
    29       C         20.42098800     18.94068300     14.63696700   
    30       C         14.63696700     20.42098800     18.94068300   
    31       C          6.90568300     21.46803300      3.64901200   
    32       C         20.65446700     11.14681700     14.40348800   
    33       C         23.18181700     21.70151200      3.41553300   
    34       C          3.41553300     23.18181700     21.70151200   
    35       C         21.70151200      3.41553300     23.18181700   
    36       C         11.14681700     14.40348800     20.65446700   
    37       C         14.40348800     20.65446700     11.14681700   
    38       C          9.43303300      8.38598800     17.16431700   
    39       C          5.12931700      2.60196700     15.68401200   
    40       C         17.16431700      9.43303300      8.38598800   
    41       C         15.68401200      5.12931700      2.60196700   
    42       C          8.38598800     17.16431700      9.43303300   
    43       C          2.60196700     15.68401200      5.12931700   
    44       C          0.88818300      9.66651200      8.61946700   
    45       C          2.36848800     15.45053300     12.92318300   
    46       C         15.45053300     12.92318300      2.36848800   
    47       C          9.66651200      8.61946700      0.88818300   
    48       C         12.92318300      2.36848800     15.45053300   
    49       C         14.79342200     17.30392300     20.81332900   
    50       C         11.28642300     20.81092200      9.27417100   
    51       C          3.25667100      2.75842200     18.80107700   
    52       C         18.80107700      3.25667100      2.75842200   
    53       C         20.81332900     14.79342200     17.30392300   
    54       C         17.30392300     20.81332900     14.79342200   
    55       C          2.75842200     18.80107700      3.25667100   
    56       C         23.32142300     15.29407800     14.79582900   
    57       C          3.25907800     21.30917100      0.74857700   
    58       C          0.74857700      3.25907800     21.30917100   
    59       C         21.30917100      0.74857700      3.25907800   
    60       C         15.29407800     14.79582900     23.32142300   
    61       C         14.79582900     23.32142300     15.29407800   
    62       C          6.76607700      8.77832900     21.31157800   
    63       C          9.27657800      5.26892300     15.29167100   
    64       C         21.31157800      6.76607700      8.77832900   
    65       C         15.29167100      9.27657800      5.26892300   
    66       C          8.77832900     21.31157800      6.76607700   
    67       C          5.26892300     15.29167100      9.27657800   
    68       C         20.81092200      9.27417100     11.28642300   
    69       C          2.76082900     12.78357700      8.77592200   
    70       C         12.78357700      8.77592200      2.76082900   
    71       C          9.27417100     11.28642300     20.81092200   
    72       C          8.77592200      2.76082900     12.78357700   
    73       C         15.55884800     15.38313700     22.14199300   
    74       C          9.36563700     21.57634800      7.94550700   
    75       C          1.92800700      3.52384800     20.72186300   
    76       C         20.72186300      1.92800700      3.52384800   
    77       C         22.14199300     15.55884800     15.38313700   
    78       C         15.38313700     22.14199300     15.55884800   
    79       C          3.52384800     20.72186300      1.92800700   
    80       C         21.40063700     14.52865200     16.12449300   
    81       C          2.49365200     19.98050700      2.66936300   
    82       C          2.66936300      2.49365200     19.98050700   
    83       C         19.98050700      2.66936300      2.49365200   
    84       C         14.52865200     16.12449300     21.40063700   
    85       C         16.12449300     21.40063700     14.52865200   
    86       C          8.68686300     10.10699300     20.54615200   
    87       C          8.51115200      3.34813700     13.96300700   
    88       C         20.54615200      8.68686300     10.10699300   
    89       C         13.96300700      8.51115200      3.34813700   
    90       C         10.10699300     20.54615200      8.68686300   
    91       C          3.34813700     13.96300700      8.51115200   
    92       C         21.57634800      7.94550700      9.36563700   
    93       C          4.08949300     14.70436300      9.54134800   
    94       C         14.70436300      9.54134800      4.08949300   
    95       C          7.94550700      9.36563700     21.57634800   
    96       C          9.54134800      4.08949300     14.70436300   
    97       C         18.45687600     16.94528000     20.56300100   
    98       C         10.92778000      0.40437600      9.52449900   
    99       C          3.50699900      6.42187600     19.15972000   
   100       C         19.15972000      3.50699900      6.42187600   
   101       C         20.56300100     18.45687600     16.94528000   
   102       C         16.94528000     20.56300100     18.45687600   
   103       C          6.42187600     19.15972000      3.50699900   
   104       C         22.96278000     11.63062400     14.54550100   
   105       C         23.66562400     21.55949900      1.10722000   
   106       C          1.10722000     23.66562400     21.55949900   
   107       C         21.55949900      1.10722000     23.66562400   
   108       C         11.63062400     14.54550100     22.96278000   
   109       C         14.54550100     22.96278000     11.63062400   
   110       C          7.12472000      8.52800100     17.64812400   
   111       C          5.61312400      4.91028000     15.54199900   
   112       C         17.64812400      7.12472000      8.52800100   
   113       C         15.54199900      5.61312400      4.91028000   
   114       C          8.52800100     17.64812400      7.12472000   
   115       C          4.91028000     15.54199900      5.61312400   
   116       C          0.40437600      9.52449900     10.92778000   
   117       C          2.51050100     13.14222000     12.43937600   
   118       C         13.14222000     12.43937600      2.51050100   
   119       C          9.52449900     10.92778000      0.40437600   
   120       C         12.43937600      2.51050100     13.14222000   
   121       C         16.54812500     19.02011400     20.18991600   
   122       C         13.00261400     22.56562500      9.89758400   
   123       C          3.88008400      4.51312500     17.08488600   
   124       C         17.08488600      3.88008400      4.51312500   
   125       C         20.18991600     16.54812500     19.02011400   
   126       C         19.02011400     20.18991600     16.54812500   
   127       C          4.51312500     17.08488600      3.88008400   
   128       C          0.96761400     13.53937500     14.17241600   
   129       C          1.50437500     21.93258400     23.10238600   
   130       C         23.10238600      1.50437500     21.93258400   
   131       C         21.93258400     23.10238600      1.50437500   
   132       C         13.53937500     14.17241600      0.96761400   
   133       C         14.17241600      0.96761400     13.53937500   
   134       C          5.04988600      8.15491600     19.55687500   
   135       C          7.52187500      6.98511400     15.91508400   
   136       C         19.55687500      5.04988600      8.15491600   
   137       C         15.91508400      7.52187500      6.98511400   
   138       C          8.15491600     19.55687500      5.04988600   
   139       C          6.98511400     15.91508400      7.52187500   
   140       C         22.56562500      9.89758400     13.00261400   
   141       C          2.13741600     11.06738600     10.53062500   
   142       C         11.06738600     10.53062500      2.13741600   
   143       C          9.89758400     13.00261400     22.56562500   
   144       C         10.53062500      2.13741600     11.06738600   
   145       C         23.22514300     21.99035200     23.90873100   
   146       C         15.97285200      5.17264300      6.17876900   
   147       C          0.16126900     11.19014300     14.11464800   
   148       C         14.11464800      0.16126900     11.19014300   
   149       C         23.90873100     23.22514300     21.99035200   
   150       C         21.99035200     23.90873100     23.22514300   
   151       C         11.19014300     14.11464800      0.16126900   
   152       C          3.93785200      6.86235700     17.89123100   
   153       C         18.89735700     18.21376900     20.13214800   
   154       C         20.13214800     18.89735700     18.21376900   
   155       C         18.21376900     20.13214800     18.89735700   
   156       C          6.86235700     17.89123100      3.93785200   
   157       C         17.89123100      3.93785200      6.86235700   
   158       C          2.07964800     11.87373100     12.87985700   
   159       C          0.84485700      9.95535200     12.19626900   
   160       C         12.87985700      2.07964800     11.87373100   
   161       C         12.19626900      0.84485700      9.95535200   
   162       C         11.87373100     12.87985700      2.07964800   
   163       C          9.95535200     12.19626900      0.84485700   
   164       C          5.17264300      6.17876900     15.97285200   
   165       C          5.85623100      8.09714800     17.20764300   
   166       C          8.09714800     17.20764300      5.85623100   
   167       C          6.17876900     15.97285200      5.17264300   
   168       C         17.20764300      5.85623100      8.09714800   
   169       C         17.16672400     16.79123200     21.00829600   
   170       C         10.77373200     23.18422400      9.07920400   
   171       C          3.06170400      5.13172400     19.31376800   
   172       C         19.31376800      3.06170400      5.13172400   
   173       C         21.00829600     17.16672400     16.79123200   
   174       C         16.79123200     21.00829600     17.16672400   
   175       C          5.13172400     19.31376800      3.06170400   
   176       C         22.80873200     12.92077600     14.99079600   
   177       C          0.88577600     21.11420400      1.26126800   
   178       C          1.26126800      0.88577600     21.11420400   
   179       C         21.11420400      1.26126800      0.88577600   
   180       C         12.92077600     14.99079600     22.80873200   
   181       C         14.99079600     22.80873200     12.92077600   
   182       C          7.27876800      8.97329600     18.93827600   
   183       C          6.90327600      4.75623200     15.09670400   
   184       C         18.93827600      7.27876800      8.97329600   
   185       C         15.09670400      6.90327600      4.75623200   
   186       C          8.97329600     18.93827600      7.27876800   
   187       C          4.75623200     15.09670400      6.90327600   
   188       C         23.18422400      9.07920400     10.77373200   
   189       C          2.95579600     13.29626800     11.14922400   
   190       C         13.29626800     11.14922400      2.95579600   
   191       C          9.07920400     10.77373200     23.18422400   
   192       C         11.14922400      2.95579600     13.29626800   
   193       C         16.16300500     17.81420700     20.72908400   
   194       C         11.79670700     22.18050500      9.35841600   
   195       C          3.34091600      4.12800500     18.29079300   
   196       C         18.29079300      3.34091600      4.12800500   
   197       C         20.72908400     16.16300500     17.81420700   
   198       C         17.81420700     20.72908400     16.16300500   
   199       C          4.12800500     18.29079300      3.34091600   
   200       C         23.83170700     13.92449500     14.71158400   
   201       C          1.88949500     21.39341600      0.23829300   
   202       C          0.23829300      1.88949500     21.39341600   
   203       C         21.39341600      0.23829300      1.88949500   
   204       C         13.92449500     14.71158400     23.83170700   
   205       C         14.71158400     23.83170700     13.92449500   
   206       C          6.25579300      8.69408400     19.94199500   
   207       C          7.90699500      5.77920700     15.37591600   
   208       C         19.94199500      6.25579300      8.69408400   
   209       C         15.37591600      7.90699500      5.77920700   
   210       C          8.69408400     19.94199500      6.25579300   
   211       C          5.77920700     15.37591600      7.90699500   
   212       C         22.18050500      9.35841600     11.79670700   
   213       C          2.67658400     12.27329300     10.14550500   
   214       C         12.27329300     10.14550500      2.67658400   
   215       C          9.35841600     11.79670700     22.18050500   
   216       C         10.14550500      2.67658400     12.27329300   
   217       C         19.29932600     15.89101400     20.03346100   
   218       C          9.87351400      1.24682600     10.05403900   
   219       C          4.03653900      7.26432600     20.21398600   
   220       C         20.21398600      4.03653900      7.26432600   
   221       C         20.03346100     19.29932600     15.89101400   
   222       C         15.89101400     20.03346100     19.29932600   
   223       C          7.26432600     20.21398600      4.03653900   
   224       C         21.90851400     10.78817400     14.01596100   
   225       C         22.82317400     22.08903900      2.16148600   
   226       C          2.16148600     22.82317400     22.08903900   
   227       C         22.08903900      2.16148600     22.82317400   
   228       C         10.78817400     14.01596100     21.90851400   
   229       C         14.01596100     21.90851400     10.78817400   
   230       C          8.17898600      7.99846100     16.80567400   
   231       C          4.77067400      3.85601400     16.07153900   
   232       C         16.80567400      8.17898600      7.99846100   
   233       C         16.07153900      4.77067400      3.85601400   
   234       C          7.99846100     16.80567400      8.17898600   
   235       C          3.85601400     16.07153900      4.77067400   
   236       C          1.24682600     10.05403900      9.87351400   
   237       C          1.98096100     14.19648600     13.28182600   
   238       C         14.19648600     13.28182600      1.98096100   
   239       C         10.05403900      9.87351400      1.24682600   
   240       C         13.28182600      1.98096100     14.19648600   
   241       C         16.88029100     15.47701000     21.48728900   
   242       C          9.45951000     22.89779100      8.60021100   
   243       C          2.58271100      4.84529100     20.62799000   
   244       C         20.62799000      2.58271100      4.84529100   
   245       C         21.48728900     16.88029100     15.47701000   
   246       C         15.47701000     21.48728900     16.88029100   
   247       C          4.84529100     20.62799000      2.58271100   
   248       C         21.49451000     13.20720900     15.46978900   
   249       C          1.17220900     20.63521100      2.57549000   
   250       C          2.57549000      1.17220900     20.63521100   
   251       C         20.63521100      2.57549000      1.17220900   
   252       C         13.20720900     15.46978900     21.49451000   
   253       C         15.46978900     21.49451000     13.20720900   
   254       C          8.59299000      9.45228900     19.22470900   
   255       C          7.18970900      3.44201000     14.61771100   
   256       C         19.22470900      8.59299000      9.45228900   
   257       C         14.61771100      7.18970900      3.44201000   
   258       C          9.45228900     19.22470900      8.59299000   
   259       C          3.44201000     14.61771100      7.18970900   
   260       C         22.89779100      8.60021100      9.45951000   
   261       C          3.43478900     14.61049000     10.86279100   
   262       C         14.61049000     10.86279100      3.43478900   
   263       C          8.60021100      9.45951000     22.89779100   
   264       C         10.86279100      3.43478900     14.61049000   
   265       B         19.21748800     19.98050700     17.98510400   
   266       B         13.96300700      1.16498800     12.10239600   
   267       B          6.08489600      7.18248800     16.12449300   
   268       B         16.12449300      6.08489600      7.18248800   
   269       B         17.98510400     19.21748800     19.98050700   
   270       B         19.98050700     17.98510400     19.21748800   
   271       B          7.18248800     16.12449300      6.08489600   
   272       B          1.92800700     10.87001200     11.96760400   
   273       B         22.90501200      0.06739600     22.14199300   
   274       B         22.14199300     22.90501200      0.06739600   
   275       B          0.06739600     22.14199300     22.90501200   
   276       B         10.87001200     11.96760400      1.92800700   
   277       B         11.96760400      1.92800700     10.87001200   
   278       B          4.08949300      5.95010400     16.88751200   
   279       B          4.85251200      7.94550700     18.11989600   
   280       B         16.88751200      4.08949300      5.95010400   
   281       B         18.11989600      4.85251200      7.94550700   
   282       B          5.95010400     16.88751200      4.08949300   
   283       B          7.94550700     18.11989600      4.85251200   
   284       B          1.16498800     12.10239600     13.96300700   
   285       B         24.00260400     10.10699300     13.19998800   
   286       B         10.10699300     13.19998800     24.00260400   
   287       B         12.10239600     13.96300700      1.16498800   
   288       B         13.19998800     24.00260400     10.10699300   
   289       H         13.45031600     21.59801100     17.55184400   
   290       H         15.58051100     19.46781600     12.53565600   
   291       H          6.51815600      1.41531600     14.50698900   
   292       H         14.50698900      6.51815600      1.41531600   
   293       H         17.55184400     13.45031600     21.59801100   
   294       H         21.59801100     17.55184400     13.45031600   
   295       H          1.41531600     14.50698900      6.51815600   
   296       H          3.54551100     16.63718400     11.53434400   
   297       H          4.60218400      0.50065600     20.52448900   
   298       H         20.52448900      4.60218400      0.50065600   
   299       H          0.50065600     20.52448900      4.60218400   
   300       H         16.63718400     11.53434400      3.54551100   
   301       H         11.53434400      3.54551100     16.63718400   
   302       H          2.47198900      5.51684400     22.65468400   
   303       H         10.61968400      9.56301100     18.55315600   
   304       H         22.65468400      2.47198900      5.51684400   
   305       H         18.55315600     10.61968400      9.56301100   
   306       H          5.51684400     22.65468400      2.47198900   
   307       H          9.56301100     18.55315600     10.61968400   
   308       H         19.46781600     12.53565600     15.58051100   
   309       H         23.56934400      8.48948900      7.43281600   
   310       H          8.48948900      7.43281600     23.56934400   
   311       H         12.53565600     15.58051100     19.46781600   
   312       H          7.43281600     23.56934400      8.48948900   
   313       H         13.74878400     20.12733400     19.49910700   
   314       H         14.10983400     19.76628400     10.58839300   
   315       H          4.57089300      1.71378400     15.97766600   
   316       H         15.97766600      4.57089300      1.71378400   
   317       H         19.49910700     13.74878400     20.12733400   
   318       H         20.12733400     19.49910700     13.74878400   
   319       H          1.71378400     15.97766600      4.57089300   
   320       H          2.07483400     16.33871600     13.48160700   
   321       H          4.30371600     22.62339300     21.99516600   
   322       H         21.99516600      4.30371600     22.62339300   
   323       H         22.62339300     21.99516600      4.30371600   
   324       H         16.33871600     13.48160700      2.07483400   
   325       H         13.48160700      2.07483400     16.33871600   
   326       H          3.94266600      7.46410700     22.35621600   
   327       H         10.32121600      8.09233400     16.60589300   
   328       H         22.35621600      3.94266600      7.46410700   
   329       H         16.60589300     10.32121600      8.09233400   
   330       H          7.46410700     22.35621600      3.94266600   
   331       H          8.09233400     16.60589300     10.32121600   
   332       H         19.76628400     10.58839300     14.10983400   
   333       H          1.44660700      9.96016600      7.73128400   
   334       H          9.96016600      7.73128400      1.44660700   
   335       H         10.58839300     14.10983400     19.76628400   
   336       H          7.73128400      1.44660700      9.96016600   
   337       H         14.00392600     17.89845200     20.33674300   
   338       H         11.88095200     20.02142600      9.75075700   
   339       H          3.73325700      1.96892600     18.20654800   
   340       H         18.20654800      3.73325700      1.96892600   
   341       H         20.33674300     14.00392600     17.89845200   
   342       H         17.89845200     20.33674300     14.00392600   
   343       H          1.96892600     18.20654800      3.73325700   
   344       H         23.91595200     16.08357400     14.31924300   
   345       H          4.04857400     21.78575700      0.15404800   
   346       H          0.15404800      4.04857400     21.78575700   
   347       H         21.78575700      0.15404800      4.04857400   
   348       H         16.08357400     14.31924300     23.91595200   
   349       H         14.31924300     23.91595200     16.08357400   
   350       H          6.17154800      8.30174300     22.10107400   
   351       H         10.06607400      5.86345200     15.76825700   
   352       H         22.10107400      6.17154800      8.30174300   
   353       H         15.76825700     10.06607400      5.86345200   
   354       H          8.30174300     22.10107400      6.17154800   
   355       H          5.86345200     15.76825700     10.06607400   
   356       H         20.02142600      9.75075700     11.88095200   
   357       H          2.28424300     12.18904800      7.98642600   
   358       H         12.18904800      7.98642600      2.28424300   
   359       H          9.75075700     11.88095200     20.02142600   
   360       H          7.98642600      2.28424300     12.18904800   
   361      Tv         24.07000000      0.00000000      0.00000000   
   362      Tv          0.00000000     24.07000000      0.00000000   
   363      Tv          0.00000000      0.00000000     24.07000000   


                   THE SYSTEM IS A SOLID


                UNIT CELL TRANSLATION VECTORS

              X                Y              Z
    T1 =    24.0700000      0.0000000      0.0000000
    T2 =     0.0000000     24.0700000      0.0000000
    T3 =     0.0000000      0.0000000     24.0700000


          CARTESIAN COORDINATES 

    NO.       ATOM           X           Y           Z

     1         C         17.7661     14.4613     21.2297
     2         C          8.4438     23.7836      8.8578
     3         C          2.8403      5.7311     21.6437
     4         C         21.6437      2.8403      5.7311
     5         C         21.2297     17.7661     14.4613
     6         C         14.4613     21.2297     17.7661
     7         C          5.7311     21.6437      2.8403
     8         C         20.4788     12.3214     15.2122
     9         C          0.2864     20.8928      3.5912
    10         C          3.5912      0.2864     20.8928
    11         C         20.8928      3.5912      0.2864
    12         C         12.3214     15.2122     20.4788
    13         C         15.2122     20.4788     12.3214
    14         C          9.6087      9.1947     18.3389
    15         C          6.3039      2.4263     14.8753
    16         C         18.3389      9.6087      9.1947
    17         C         14.8753      6.3039      2.4263
    18         C          9.1947     18.3389      9.6087
    19         C          2.4263     14.8753      6.3039
    20         C         23.7836      8.8578      8.4438
    21         C          3.1772     15.6262     11.7486
    22         C         15.6262     11.7486      3.1772
    23         C          8.8578      8.4438     23.7836
    24         C         11.7486      3.1772     15.6262
    25         C         18.9407     14.6370     20.4210
    26         C          8.6195      0.8882      9.6665
    27         C          3.6490      6.9057     21.4680
    28         C         21.4680      3.6490      6.9057
    29         C         20.4210     18.9407     14.6370
    30         C         14.6370     20.4210     18.9407
    31         C          6.9057     21.4680      3.6490
    32         C         20.6545     11.1468     14.4035
    33         C         23.1818     21.7015      3.4155
    34         C          3.4155     23.1818     21.7015
    35         C         21.7015      3.4155     23.1818
    36         C         11.1468     14.4035     20.6545
    37         C         14.4035     20.6545     11.1468
    38         C          9.4330      8.3860     17.1643
    39         C          5.1293      2.6020     15.6840
    40         C         17.1643      9.4330      8.3860
    41         C         15.6840      5.1293      2.6020
    42         C          8.3860     17.1643      9.4330
    43         C          2.6020     15.6840      5.1293
    44         C          0.8882      9.6665      8.6195
    45         C          2.3685     15.4505     12.9232
    46         C         15.4505     12.9232      2.3685
    47         C          9.6665      8.6195      0.8882
    48         C         12.9232      2.3685     15.4505
    49         C         14.7934     17.3039     20.8133
    50         C         11.2864     20.8109      9.2742
    51         C          3.2567      2.7584     18.8011
    52         C         18.8011      3.2567      2.7584
    53         C         20.8133     14.7934     17.3039
    54         C         17.3039     20.8133     14.7934
    55         C          2.7584     18.8011      3.2567
    56         C         23.3214     15.2941     14.7958
    57         C          3.2591     21.3092      0.7486
    58         C          0.7486      3.2591     21.3092
    59         C         21.3092      0.7486      3.2591
    60         C         15.2941     14.7958     23.3214
    61         C         14.7958     23.3214     15.2941
    62         C          6.7661      8.7783     21.3116
    63         C          9.2766      5.2689     15.2917
    64         C         21.3116      6.7661      8.7783
    65         C         15.2917      9.2766      5.2689
    66         C          8.7783     21.3116      6.7661
    67         C          5.2689     15.2917      9.2766
    68         C         20.8109      9.2742     11.2864
    69         C          2.7608     12.7836      8.7759
    70         C         12.7836      8.7759      2.7608
    71         C          9.2742     11.2864     20.8109
    72         C          8.7759      2.7608     12.7836
    73         C         15.5588     15.3831     22.1420
    74         C          9.3656     21.5763      7.9455
    75         C          1.9280      3.5238     20.7219
    76         C         20.7219      1.9280      3.5238
    77         C         22.1420     15.5588     15.3831
    78         C         15.3831     22.1420     15.5588
    79         C          3.5238     20.7219      1.9280
    80         C         21.4006     14.5287     16.1245
    81         C          2.4937     19.9805      2.6694
    82         C          2.6694      2.4937     19.9805
    83         C         19.9805      2.6694      2.4937
    84         C         14.5287     16.1245     21.4006
    85         C         16.1245     21.4006     14.5287
    86         C          8.6869     10.1070     20.5462
    87         C          8.5112      3.3481     13.9630
    88         C         20.5462      8.6869     10.1070
    89         C         13.9630      8.5112      3.3481
    90         C         10.1070     20.5462      8.6869
    91         C          3.3481     13.9630      8.5112
    92         C         21.5763      7.9455      9.3656
    93         C          4.0895     14.7044      9.5413
    94         C         14.7044      9.5413      4.0895
    95         C          7.9455      9.3656     21.5763
    96         C          9.5413      4.0895     14.7044
    97         C         18.4569     16.9453     20.5630
    98         C         10.9278      0.4044      9.5245
    99         C          3.5070      6.4219     19.1597
   100         C         19.1597      3.5070      6.4219
   101         C         20.5630     18.4569     16.9453
   102         C         16.9453     20.5630     18.4569
   103         C          6.4219     19.1597      3.5070
   104         C         22.9628     11.6306     14.5455
   105         C         23.6656     21.5595      1.1072
   106         C          1.1072     23.6656     21.5595
   107         C         21.5595      1.1072     23.6656
   108         C         11.6306     14.5455     22.9628
   109         C         14.5455     22.9628     11.6306
   110         C          7.1247      8.5280     17.6481
   111         C          5.6131      4.9103     15.5420
   112         C         17.6481      7.1247      8.5280
   113         C         15.5420      5.6131      4.9103
   114         C          8.5280     17.6481      7.1247
   115         C          4.9103     15.5420      5.6131
   116         C          0.4044      9.5245     10.9278
   117         C          2.5105     13.1422     12.4394
   118         C         13.1422     12.4394      2.5105
   119         C          9.5245     10.9278      0.4044
   120         C         12.4394      2.5105     13.1422
   121         C         16.5481     19.0201     20.1899
   122         C         13.0026     22.5656      9.8976
   123         C          3.8801      4.5131     17.0849
   124         C         17.0849      3.8801      4.5131
   125         C         20.1899     16.5481     19.0201
   126         C         19.0201     20.1899     16.5481
   127         C          4.5131     17.0849      3.8801
   128         C          0.9676     13.5394     14.1724
   129         C          1.5044     21.9326     23.1024
   130         C         23.1024      1.5044     21.9326
   131         C         21.9326     23.1024      1.5044
   132         C         13.5394     14.1724      0.9676
   133         C         14.1724      0.9676     13.5394
   134         C          5.0499      8.1549     19.5569
   135         C          7.5219      6.9851     15.9151
   136         C         19.5569      5.0499      8.1549
   137         C         15.9151      7.5219      6.9851
   138         C          8.1549     19.5569      5.0499
   139         C          6.9851     15.9151      7.5219
   140         C         22.5656      9.8976     13.0026
   141         C          2.1374     11.0674     10.5306
   142         C         11.0674     10.5306      2.1374
   143         C          9.8976     13.0026     22.5656
   144         C         10.5306      2.1374     11.0674
   145         C         23.2251     21.9904     23.9087
   146         C         15.9729      5.1726      6.1788
   147         C          0.1613     11.1901     14.1146
   148         C         14.1146      0.1613     11.1901
   149         C         23.9087     23.2251     21.9904
   150         C         21.9904     23.9087     23.2251
   151         C         11.1901     14.1146      0.1613
   152         C          3.9379      6.8624     17.8912
   153         C         18.8974     18.2138     20.1321
   154         C         20.1321     18.8974     18.2138
   155         C         18.2138     20.1321     18.8974
   156         C          6.8624     17.8912      3.9379
   157         C         17.8912      3.9379      6.8624
   158         C          2.0796     11.8737     12.8799
   159         C          0.8449      9.9554     12.1963
   160         C         12.8799      2.0796     11.8737
   161         C         12.1963      0.8449      9.9554
   162         C         11.8737     12.8799      2.0796
   163         C          9.9554     12.1963      0.8449
   164         C          5.1726      6.1788     15.9729
   165         C          5.8562      8.0971     17.2076
   166         C          8.0971     17.2076      5.8562
   167         C          6.1788     15.9729      5.1726
   168         C         17.2076      5.8562      8.0971
   169         C         17.1667     16.7912     21.0083
   170         C         10.7737     23.1842      9.0792
   171         C          3.0617      5.1317     19.3138
   172         C         19.3138      3.0617      5.1317
   173         C         21.0083     17.1667     16.7912
   174         C         16.7912     21.0083     17.1667
   175         C          5.1317     19.3138      3.0617
   176         C         22.8087     12.9208     14.9908
   177         C          0.8858     21.1142      1.2613
   178         C          1.2613      0.8858     21.1142
   179         C         21.1142      1.2613      0.8858
   180         C         12.9208     14.9908     22.8087
   181         C         14.9908     22.8087     12.9208
   182         C          7.2788      8.9733     18.9383
   183         C          6.9033      4.7562     15.0967
   184         C         18.9383      7.2788      8.9733
   185         C         15.0967      6.9033      4.7562
   186         C          8.9733     18.9383      7.2788
   187         C          4.7562     15.0967      6.9033
   188         C         23.1842      9.0792     10.7737
   189         C          2.9558     13.2963     11.1492
   190         C         13.2963     11.1492      2.9558
   191         C          9.0792     10.7737     23.1842
   192         C         11.1492      2.9558     13.2963
   193         C         16.1630     17.8142     20.7291
   194         C         11.7967     22.1805      9.3584
   195         C          3.3409      4.1280     18.2908
   196         C         18.2908      3.3409      4.1280
   197         C         20.7291     16.1630     17.8142
   198         C         17.8142     20.7291     16.1630
   199         C          4.1280     18.2908      3.3409
   200         C         23.8317     13.9245     14.7116
   201         C          1.8895     21.3934      0.2383
   202         C          0.2383      1.8895     21.3934
   203         C         21.3934      0.2383      1.8895
   204         C         13.9245     14.7116     23.8317
   205         C         14.7116     23.8317     13.9245
   206         C          6.2558      8.6941     19.9420
   207         C          7.9070      5.7792     15.3759
   208         C         19.9420      6.2558      8.6941
   209         C         15.3759      7.9070      5.7792
   210         C          8.6941     19.9420      6.2558
   211         C          5.7792     15.3759      7.9070
   212         C         22.1805      9.3584     11.7967
   213         C          2.6766     12.2733     10.1455
   214         C         12.2733     10.1455      2.6766
   215         C          9.3584     11.7967     22.1805
   216         C         10.1455      2.6766     12.2733
   217         C         19.2993     15.8910     20.0335
   218         C          9.8735      1.2468     10.0540
   219         C          4.0365      7.2643     20.2140
   220         C         20.2140      4.0365      7.2643
   221         C         20.0335     19.2993     15.8910
   222         C         15.8910     20.0335     19.2993
   223         C          7.2643     20.2140      4.0365
   224         C         21.9085     10.7882     14.0160
   225         C         22.8232     22.0890      2.1615
   226         C          2.1615     22.8232     22.0890
   227         C         22.0890      2.1615     22.8232
   228         C         10.7882     14.0160     21.9085
   229         C         14.0160     21.9085     10.7882
   230         C          8.1790      7.9985     16.8057
   231         C          4.7707      3.8560     16.0715
   232         C         16.8057      8.1790      7.9985
   233         C         16.0715      4.7707      3.8560
   234         C          7.9985     16.8057      8.1790
   235         C          3.8560     16.0715      4.7707
   236         C          1.2468     10.0540      9.8735
   237         C          1.9810     14.1965     13.2818
   238         C         14.1965     13.2818      1.9810
   239         C         10.0540      9.8735      1.2468
   240         C         13.2818      1.9810     14.1965
   241         C         16.8803     15.4770     21.4873
   242         C          9.4595     22.8978      8.6002
   243         C          2.5827      4.8453     20.6280
   244         C         20.6280      2.5827      4.8453
   245         C         21.4873     16.8803     15.4770
   246         C         15.4770     21.4873     16.8803
   247         C          4.8453     20.6280      2.5827
   248         C         21.4945     13.2072     15.4698
   249         C          1.1722     20.6352      2.5755
   250         C          2.5755      1.1722     20.6352
   251         C         20.6352      2.5755      1.1722
   252         C         13.2072     15.4698     21.4945
   253         C         15.4698     21.4945     13.2072
   254         C          8.5930      9.4523     19.2247
   255         C          7.1897      3.4420     14.6177
   256         C         19.2247      8.5930      9.4523
   257         C         14.6177      7.1897      3.4420
   258         C          9.4523     19.2247      8.5930
   259         C          3.4420     14.6177      7.1897
   260         C         22.8978      8.6002      9.4595
   261         C          3.4348     14.6105     10.8628
   262         C         14.6105     10.8628      3.4348
   263         C          8.6002      9.4595     22.8978
   264         C         10.8628      3.4348     14.6105
   265         B         19.2175     19.9805     17.9851
   266         B         13.9630      1.1650     12.1024
   267         B          6.0849      7.1825     16.1245
   268         B         16.1245      6.0849      7.1825
   269         B         17.9851     19.2175     19.9805
   270         B         19.9805     17.9851     19.2175
   271         B          7.1825     16.1245      6.0849
   272         B          1.9280     10.8700     11.9676
   273         B         22.9050      0.0674     22.1420
   274         B         22.1420     22.9050      0.0674
   275         B          0.0674     22.1420     22.9050
   276         B         10.8700     11.9676      1.9280
   277         B         11.9676      1.9280     10.8700
   278         B          4.0895      5.9501     16.8875
   279         B          4.8525      7.9455     18.1199
   280         B         16.8875      4.0895      5.9501
   281         B         18.1199      4.8525      7.9455
   282         B          5.9501     16.8875      4.0895
   283         B          7.9455     18.1199      4.8525
   284         B          1.1650     12.1024     13.9630
   285         B         24.0026     10.1070     13.2000
   286         B         10.1070     13.2000     24.0026
   287         B         12.1024     13.9630      1.1650
   288         B         13.2000     24.0026     10.1070
   289         H         13.4503     21.5980     17.5518
   290         H         15.5805     19.4678     12.5357
   291         H          6.5182      1.4153     14.5070
   292         H         14.5070      6.5182      1.4153
   293         H         17.5518     13.4503     21.5980
   294         H         21.5980     17.5518     13.4503
   295         H          1.4153     14.5070      6.5182
   296         H          3.5455     16.6372     11.5343
   297         H          4.6022      0.5007     20.5245
   298         H         20.5245      4.6022      0.5007
   299         H          0.5007     20.5245      4.6022
   300         H         16.6372     11.5343      3.5455
   301         H         11.5343      3.5455     16.6372
   302         H          2.4720      5.5168     22.6547
   303         H         10.6197      9.5630     18.5532
   304         H         22.6547      2.4720      5.5168
   305         H         18.5532     10.6197      9.5630
   306         H          5.5168     22.6547      2.4720
   307         H          9.5630     18.5532     10.6197
   308         H         19.4678     12.5357     15.5805
   309         H         23.5693      8.4895      7.4328
   310         H          8.4895      7.4328     23.5693
   311         H         12.5357     15.5805     19.4678
   312         H          7.4328     23.5693      8.4895
   313         H         13.7488     20.1273     19.4991
   314         H         14.1098     19.7663     10.5884
   315         H          4.5709      1.7138     15.9777
   316         H         15.9777      4.5709      1.7138
   317         H         19.4991     13.7488     20.1273
   318         H         20.1273     19.4991     13.7488
   319         H          1.7138     15.9777      4.5709
   320         H          2.0748     16.3387     13.4816
   321         H          4.3037     22.6234     21.9952
   322         H         21.9952      4.3037     22.6234
   323         H         22.6234     21.9952      4.3037
   324         H         16.3387     13.4816      2.0748
   325         H         13.4816      2.0748     16.3387
   326         H          3.9427      7.4641     22.3562
   327         H         10.3212      8.0923     16.6059
   328         H         22.3562      3.9427      7.4641
   329         H         16.6059     10.3212      8.0923
   330         H          7.4641     22.3562      3.9427
   331         H          8.0923     16.6059     10.3212
   332         H         19.7663     10.5884     14.1098
   333         H          1.4466      9.9602      7.7313
   334         H          9.9602      7.7313      1.4466
   335         H         10.5884     14.1098     19.7663
   336         H          7.7313      1.4466      9.9602
   337         H         14.0039     17.8985     20.3367
   338         H         11.8810     20.0214      9.7508
   339         H          3.7333      1.9689     18.2065
   340         H         18.2065      3.7333      1.9689
   341         H         20.3367     14.0039     17.8985
   342         H         17.8985     20.3367     14.0039
   343         H          1.9689     18.2065      3.7333
   344         H         23.9160     16.0836     14.3192
   345         H          4.0486     21.7858      0.1540
   346         H          0.1540      4.0486     21.7858
   347         H         21.7858      0.1540      4.0486
   348         H         16.0836     14.3192     23.9160
   349         H         14.3192     23.9160     16.0836
   350         H          6.1715      8.3017     22.1011
   351         H         10.0661      5.8635     15.7683
   352         H         22.1011      6.1715      8.3017
   353         H         15.7683     10.0661      5.8635
   354         H          8.3017     22.1011      6.1715
   355         H          5.8635     15.7683     10.0661
   356         H         20.0214      9.7508     11.8810
   357         H          2.2842     12.1890      7.9864
   358         H         12.1890      7.9864      2.2842
   359         H          9.7508     11.8810     20.0214
   360         H          7.9864      2.2842     12.1890

 General Reference for PM7:
 "Optimization of Parameters for Semiempirical Methods VI: More Modifications to the 
 NDDO Approximations and Re-optimization of Parameters", J. J. P. Stewart, J. Mol. Mod., 1:32, 19 (2013)
 https://link.springer.com/article/10.1007/s00894-012-1667-x

           Empirical Formula: C264 H72 B24  =   360 atoms



      RHF CALCULATION, NO. OF DOUBLY OCCUPIED LEVELS = 600



 ALL CONVERGERS ARE NOW FORCED ON
 SHIFT=10, PULAY ON, CAMP-KING ON
 AND ITERATION COUNTER RESET



 -------------------------------------------------------------------------------
 PM7 CHARGE=0 NOOPT




     NO PARAMETERS MARKED FOR OPTIMIZATION, SO 1SCF WAS USED  
     SCF FIELD WAS ACHIEVED                                   


                              PM7 CALCULATION
                                                       MOPAC v22.1.0 Linux
                                                       Wed Jan 31 16:20:40 2024




          FINAL HEAT OF FORMATION =       3063.96219 KCAL/MOL =   12819.61782 KJ/MOL
          H.o.F. per unit cell    =        127.66509 KCAL, for 24 unit cells, unit cell = C11 H3 B1



          IONIZATION POTENTIAL    =          7.835322 EV
          HOMO LUMO ENERGIES (EV) =         -7.835 -4.645
          NO. OF FILLED LEVELS    =        600
          MOLECULAR WEIGHT        =       3502.9128

                   THE SYSTEM IS A SOLID


                UNIT CELL TRANSLATION VECTORS

              X                Y              Z
    T1 =    24.0700000      0.0000000      0.0000000
    T2 =     0.0000000     24.0700000      0.0000000
    T3 =     0.0000000      0.0000000     24.0700000

          VOLUME OF UNIT CELL     =      13945.313 CUBIC ANGSTROMS

          DENSITY                 =          0.417 GRAMS/CC
                              A   =         24.070 ANGSTROMS
                              B   =         24.070 ANGSTROMS
                              C   =         24.070 ANGSTROMS
                            ALPHA =         90.000 DEGREES
                            BETA  =         90.000 DEGREES
                            GAMMA =         90.000 DEGREES



          SCF CALCULATIONS        =          1

          WALL-CLOCK TIME         =         27 MINUTES AND 15.891 SECONDS
          COMPUTATION TIME        =         27 MINUTES AND 15.873 SECONDS




   ATOM   CHEMICAL          X               Y               Z
  NUMBER   SYMBOL      (ANGSTROMS)     (ANGSTROMS)     (ANGSTROMS)

     1       C         17.76606700     14.46125600     21.22974000   
     2       C          8.44375600     23.78356700      8.85776000   
     3       C          2.84026000      5.73106700     21.64374400   
     4       C         21.64374400      2.84026000      5.73106700   
     5       C         21.22974000     17.76606700     14.46125600   
     6       C         14.46125600     21.22974000     17.76606700   
     7       C          5.73106700     21.64374400      2.84026000   
     8       C         20.47875600     12.32143300     15.21224000   
     9       C          0.28643300     20.89276000      3.59124400   
    10       C          3.59124400      0.28643300     20.89276000   
    11       C         20.89276000      3.59124400      0.28643300   
    12       C         12.32143300     15.21224000     20.47875600   
    13       C         15.21224000     20.47875600     12.32143300   
    14       C          9.60874400      9.19474000     18.33893300   
    15       C          6.30393300      2.42625600     14.87526000   
    16       C         18.33893300      9.60874400      9.19474000   
    17       C         14.87526000      6.30393300      2.42625600   
    18       C          9.19474000     18.33893300      9.60874400   
    19       C          2.42625600     14.87526000      6.30393300   
    20       C         23.78356700      8.85776000      8.44375600   
    21       C          3.17724000     15.62624400     11.74856700   
    22       C         15.62624400     11.74856700      3.17724000   
    23       C          8.85776000      8.44375600     23.78356700   
    24       C         11.74856700      3.17724000     15.62624400   
    25       C         18.94068300     14.63696700     20.42098800   
    26       C          8.61946700      0.88818300      9.66651200   
    27       C          3.64901200      6.90568300     21.46803300   
    28       C         21.46803300      3.64901200      6.90568300   
    29       C         20.42098800     18.94068300     14.63696700   
    30       C         14.63696700     20.42098800     18.94068300   
    31       C          6.90568300     21.46803300      3.64901200   
    32       C         20.65446700     11.14681700     14.40348800   
    33       C         23.18181700     21.70151200      3.41553300   
    34       C          3.41553300     23.18181700     21.70151200   
    35       C         21.70151200      3.41553300     23.18181700   
    36       C         11.14681700     14.40348800     20.65446700   
    37       C         14.40348800     20.65446700     11.14681700   
    38       C          9.43303300      8.38598800     17.16431700   
    39       C          5.12931700      2.60196700     15.68401200   
    40       C         17.16431700      9.43303300      8.38598800   
    41       C         15.68401200      5.12931700      2.60196700   
    42       C          8.38598800     17.16431700      9.43303300   
    43       C          2.60196700     15.68401200      5.12931700   
    44       C          0.88818300      9.66651200      8.61946700   
    45       C          2.36848800     15.45053300     12.92318300   
    46       C         15.45053300     12.92318300      2.36848800   
    47       C          9.66651200      8.61946700      0.88818300   
    48       C         12.92318300      2.36848800     15.45053300   
    49       C         14.79342200     17.30392300     20.81332900   
    50       C         11.28642300     20.81092200      9.27417100   
    51       C          3.25667100      2.75842200     18.80107700   
    52       C         18.80107700      3.25667100      2.75842200   
    53       C         20.81332900     14.79342200     17.30392300   
    54       C         17.30392300     20.81332900     14.79342200   
    55       C          2.75842200     18.80107700      3.25667100   
    56       C         23.32142300     15.29407800     14.79582900   
    57       C          3.25907800     21.30917100      0.74857700   
    58       C          0.74857700      3.25907800     21.30917100   
    59       C         21.30917100      0.74857700      3.25907800   
    60       C         15.29407800     14.79582900     23.32142300   
    61       C         14.79582900     23.32142300     15.29407800   
    62       C          6.76607700      8.77832900     21.31157800   
    63       C          9.27657800      5.26892300     15.29167100   
    64       C         21.31157800      6.76607700      8.77832900   
    65       C         15.29167100      9.27657800      5.26892300   
    66       C          8.77832900     21.31157800      6.76607700   
    67       C          5.26892300     15.29167100      9.27657800   
    68       C         20.81092200      9.27417100     11.28642300   
    69       C          2.76082900     12.78357700      8.77592200   
    70       C         12.78357700      8.77592200      2.76082900   
    71       C          9.27417100     11.28642300     20.81092200   
    72       C          8.77592200      2.76082900     12.78357700   
    73       C         15.55884800     15.38313700     22.14199300   
    74       C          9.36563700     21.57634800      7.94550700   
    75       C          1.92800700      3.52384800     20.72186300   
    76       C         20.72186300      1.92800700      3.52384800   
    77       C         22.14199300     15.55884800     15.38313700   
    78       C         15.38313700     22.14199300     15.55884800   
    79       C          3.52384800     20.72186300      1.92800700   
    80       C         21.40063700     14.52865200     16.12449300   
    81       C          2.49365200     19.98050700      2.66936300   
    82       C          2.66936300      2.49365200     19.98050700   
    83       C         19.98050700      2.66936300      2.49365200   
    84       C         14.52865200     16.12449300     21.40063700   
    85       C         16.12449300     21.40063700     14.52865200   
    86       C          8.68686300     10.10699300     20.54615200   
    87       C          8.51115200      3.34813700     13.96300700   
    88       C         20.54615200      8.68686300     10.10699300   
    89       C         13.96300700      8.51115200      3.34813700   
    90       C         10.10699300     20.54615200      8.68686300   
    91       C          3.34813700     13.96300700      8.51115200   
    92       C         21.57634800      7.94550700      9.36563700   
    93       C          4.08949300     14.70436300      9.54134800   
    94       C         14.70436300      9.54134800      4.08949300   
    95       C          7.94550700      9.36563700     21.57634800   
    96       C          9.54134800      4.08949300     14.70436300   
    97       C         18.45687600     16.94528000     20.56300100   
    98       C         10.92778000      0.40437600      9.52449900   
    99       C          3.50699900      6.42187600     19.15972000   
   100       C         19.15972000      3.50699900      6.42187600   
   101       C         20.56300100     18.45687600     16.94528000   
   102       C         16.94528000     20.56300100     18.45687600   
   103       C          6.42187600     19.15972000      3.50699900   
   104       C         22.96278000     11.63062400     14.54550100   
   105       C         23.66562400     21.55949900      1.10722000   
   106       C          1.10722000     23.66562400     21.55949900   
   107       C         21.55949900      1.10722000     23.66562400   
   108       C         11.63062400     14.54550100     22.96278000   
   109       C         14.54550100     22.96278000     11.63062400   
   110       C          7.12472000      8.52800100     17.64812400   
   111       C          5.61312400      4.91028000     15.54199900   
   112       C         17.64812400      7.12472000      8.52800100   
   113       C         15.54199900      5.61312400      4.91028000   
   114       C          8.52800100     17.64812400      7.12472000   
   115       C          4.91028000     15.54199900      5.61312400   
   116       C          0.40437600      9.52449900     10.92778000   
   117       C          2.51050100     13.14222000     12.43937600   
   118       C         13.14222000     12.43937600      2.51050100   
   119       C          9.52449900     10.92778000      0.40437600   
   120       C         12.43937600      2.51050100     13.14222000   
   121       C         16.54812500     19.02011400     20.18991600   
   122       C         13.00261400     22.56562500      9.89758400   
   123       C          3.88008400      4.51312500     17.08488600   
   124       C         17.08488600      3.88008400      4.51312500   
   125       C         20.18991600     16.54812500     19.02011400   
   126       C         19.02011400     20.18991600     16.54812500   
   127       C          4.51312500     17.08488600      3.88008400   
   128       C          0.96761400     13.53937500     14.17241600   
   129       C          1.50437500     21.93258400     23.10238600   
   130       C         23.10238600      1.50437500     21.93258400   
   131       C         21.93258400     23.10238600      1.50437500   
   132       C         13.53937500     14.17241600      0.96761400   
   133       C         14.17241600      0.96761400     13.53937500   
   134       C          5.04988600      8.15491600     19.55687500   
   135       C          7.52187500      6.98511400     15.91508400   
   136       C         19.55687500      5.04988600      8.15491600   
   137       C         15.91508400      7.52187500      6.98511400   
   138       C          8.15491600     19.55687500      5.04988600   
   139       C          6.98511400     15.91508400      7.52187500   
   140       C         22.56562500      9.89758400     13.00261400   
   141       C          2.13741600     11.06738600     10.53062500   
   142       C         11.06738600     10.53062500      2.13741600   
   143       C          9.89758400     13.00261400     22.56562500   
   144       C         10.53062500      2.13741600     11.06738600   
   145       C         23.22514300     21.99035200     23.90873100   
   146       C         15.97285200      5.17264300      6.17876900   
   147       C          0.16126900     11.19014300     14.11464800   
   148       C         14.11464800      0.16126900     11.19014300   
   149       C         23.90873100     23.22514300     21.99035200   
   150       C         21.99035200     23.90873100     23.22514300   
   151       C         11.19014300     14.11464800      0.16126900   
   152       C          3.93785200      6.86235700     17.89123100   
   153       C         18.89735700     18.21376900     20.13214800   
   154       C         20.13214800     18.89735700     18.21376900   
   155       C         18.21376900     20.13214800     18.89735700   
   156       C          6.86235700     17.89123100      3.93785200   
   157       C         17.89123100      3.93785200      6.86235700   
   158       C          2.07964800     11.87373100     12.87985700   
   159       C          0.84485700      9.95535200     12.19626900   
   160       C         12.87985700      2.07964800     11.87373100   
   161       C         12.19626900      0.84485700      9.95535200   
   162       C         11.87373100     12.87985700      2.07964800   
   163       C          9.95535200     12.19626900      0.84485700   
   164       C          5.17264300      6.17876900     15.97285200   
   165       C          5.85623100      8.09714800     17.20764300   
   166       C          8.09714800     17.20764300      5.85623100   
   167       C          6.17876900     15.97285200      5.17264300   
   168       C         17.20764300      5.85623100      8.09714800   
   169       C         17.16672400     16.79123200     21.00829600   
   170       C         10.77373200     23.18422400      9.07920400   
   171       C          3.06170400      5.13172400     19.31376800   
   172       C         19.31376800      3.06170400      5.13172400   
   173       C         21.00829600     17.16672400     16.79123200   
   174       C         16.79123200     21.00829600     17.16672400   
   175       C          5.13172400     19.31376800      3.06170400   
   176       C         22.80873200     12.92077600     14.99079600   
   177       C          0.88577600     21.11420400      1.26126800   
   178       C          1.26126800      0.88577600     21.11420400   
   179       C         21.11420400      1.26126800      0.88577600   
   180       C         12.92077600     14.99079600     22.80873200   
   181       C         14.99079600     22.80873200     12.92077600   
   182       C          7.27876800      8.97329600     18.93827600   
   183       C          6.90327600      4.75623200     15.09670400   
   184       C         18.93827600      7.27876800      8.97329600   
   185       C         15.09670400      6.90327600      4.75623200   
   186       C          8.97329600     18.93827600      7.27876800   
   187       C          4.75623200     15.09670400      6.90327600   
   188       C         23.18422400      9.07920400     10.77373200   
   189       C          2.95579600     13.29626800     11.14922400   
   190       C         13.29626800     11.14922400      2.95579600   
   191       C          9.07920400     10.77373200     23.18422400   
   192       C         11.14922400      2.95579600     13.29626800   
   193       C         16.16300500     17.81420700     20.72908400   
   194       C         11.79670700     22.18050500      9.35841600   
   195       C          3.34091600      4.12800500     18.29079300   
   196       C         18.29079300      3.34091600      4.12800500   
   197       C         20.72908400     16.16300500     17.81420700   
   198       C         17.81420700     20.72908400     16.16300500   
   199       C          4.12800500     18.29079300      3.34091600   
   200       C         23.83170700     13.92449500     14.71158400   
   201       C          1.88949500     21.39341600      0.23829300   
   202       C          0.23829300      1.88949500     21.39341600   
   203       C         21.39341600      0.23829300      1.88949500   
   204       C         13.92449500     14.71158400     23.83170700   
   205       C         14.71158400     23.83170700     13.92449500   
   206       C          6.25579300      8.69408400     19.94199500   
   207       C          7.90699500      5.77920700     15.37591600   
   208       C         19.94199500      6.25579300      8.69408400   
   209       C         15.37591600      7.90699500      5.77920700   
   210       C          8.69408400     19.94199500      6.25579300   
   211       C          5.77920700     15.37591600      7.90699500   
   212       C         22.18050500      9.35841600     11.79670700   
   213       C          2.67658400     12.27329300     10.14550500   
   214       C         12.27329300     10.14550500      2.67658400   
   215       C          9.35841600     11.79670700     22.18050500   
   216       C         10.14550500      2.67658400     12.27329300   
   217       C         19.29932600     15.89101400     20.03346100   
   218       C          9.87351400      1.24682600     10.05403900   
   219       C          4.03653900      7.26432600     20.21398600   
   220       C         20.21398600      4.03653900      7.26432600   
   221       C         20.03346100     19.29932600     15.89101400   
   222       C         15.89101400     20.03346100     19.29932600   
   223       C          7.26432600     20.21398600      4.03653900   
   224       C         21.90851400     10.78817400     14.01596100   
   225       C         22.82317400     22.08903900      2.16148600   
   226       C          2.16148600     22.82317400     22.08903900   
   227       C         22.08903900      2.16148600     22.82317400   
   228       C         10.78817400     14.01596100     21.90851400   
   229       C         14.01596100     21.90851400     10.78817400   
   230       C          8.17898600      7.99846100     16.80567400   
   231       C          4.77067400      3.85601400     16.07153900   
   232       C         16.80567400      8.17898600      7.99846100   
   233       C         16.07153900      4.77067400      3.85601400   
   234       C          7.99846100     16.80567400      8.17898600   
   235       C          3.85601400     16.07153900      4.77067400   
   236       C          1.24682600     10.05403900      9.87351400   
   237       C          1.98096100     14.19648600     13.28182600   
   238       C         14.19648600     13.28182600      1.98096100   
   239       C         10.05403900      9.87351400      1.24682600   
   240       C         13.28182600      1.98096100     14.19648600   
   241       C         16.88029100     15.47701000     21.48728900   
   242       C          9.45951000     22.89779100      8.60021100   
   243       C          2.58271100      4.84529100     20.62799000   
   244       C         20.62799000      2.58271100      4.84529100   
   245       C         21.48728900     16.88029100     15.47701000   
   246       C         15.47701000     21.48728900     16.88029100   
   247       C          4.84529100     20.62799000      2.58271100   
   248       C         21.49451000     13.20720900     15.46978900   
   249       C          1.17220900     20.63521100      2.57549000   
   250       C          2.57549000      1.17220900     20.63521100   
   251       C         20.63521100      2.57549000      1.17220900   
   252       C         13.20720900     15.46978900     21.49451000   
   253       C         15.46978900     21.49451000     13.20720900   
   254       C          8.59299000      9.45228900     19.22470900   
   255       C          7.18970900      3.44201000     14.61771100   
   256       C         19.22470900      8.59299000      9.45228900   
   257       C         14.61771100      7.18970900      3.44201000   
   258       C          9.45228900     19.22470900      8.59299000   
   259       C          3.44201000     14.61771100      7.18970900   
   260       C         22.89779100      8.60021100      9.45951000   
   261       C          3.43478900     14.61049000     10.86279100   
   262       C         14.61049000     10.86279100      3.43478900   
   263       C          8.60021100      9.45951000     22.89779100   
   264       C         10.86279100      3.43478900     14.61049000   
   265       B         19.21748800     19.98050700     17.98510400   
   266       B         13.96300700      1.16498800     12.10239600   
   267       B          6.08489600      7.18248800     16.12449300   
   268       B         16.12449300      6.08489600      7.18248800   
   269       B         17.98510400     19.21748800     19.98050700   
   270       B         19.98050700     17.98510400     19.21748800   
   271       B          7.18248800     16.12449300      6.08489600   
   272       B          1.92800700     10.87001200     11.96760400   
   273       B         22.90501200      0.06739600     22.14199300   
   274       B         22.14199300     22.90501200      0.06739600   
   275       B          0.06739600     22.14199300     22.90501200   
   276       B         10.87001200     11.96760400      1.92800700   
   277       B         11.96760400      1.92800700     10.87001200   
   278       B          4.08949300      5.95010400     16.88751200   
   279       B          4.85251200      7.94550700     18.11989600   
   280       B         16.88751200      4.08949300      5.95010400   
   281       B         18.11989600      4.85251200      7.94550700   
   282       B          5.95010400     16.88751200      4.08949300   
   283       B          7.94550700     18.11989600      4.85251200   
   284       B          1.16498800     12.10239600     13.96300700   
   285       B         24.00260400     10.10699300     13.19998800   
   286       B         10.10699300     13.19998800     24.00260400   
   287       B         12.10239600     13.96300700      1.16498800   
   288       B         13.19998800     24.00260400     10.10699300   
   289       H         13.45031600     21.59801100     17.55184400   
   290       H         15.58051100     19.46781600     12.53565600   
   291       H          6.51815600      1.41531600     14.50698900   
   292       H         14.50698900      6.51815600      1.41531600   
   293       H         17.55184400     13.45031600     21.59801100   
   294       H         21.59801100     17.55184400     13.45031600   
   295       H          1.41531600     14.50698900      6.51815600   
   296       H          3.54551100     16.63718400     11.53434400   
   297       H          4.60218400      0.50065600     20.52448900   
   298       H         20.52448900      4.60218400      0.50065600   
   299       H          0.50065600     20.52448900      4.60218400   
   300       H         16.63718400     11.53434400      3.54551100   
   301       H         11.53434400      3.54551100     16.63718400   
   302       H          2.47198900      5.51684400     22.65468400   
   303       H         10.61968400      9.56301100     18.55315600   
   304       H         22.65468400      2.47198900      5.51684400   
   305       H         18.55315600     10.61968400      9.56301100   
   306       H          5.51684400     22.65468400      2.47198900   
   307       H          9.56301100     18.55315600     10.61968400   
   308       H         19.46781600     12.53565600     15.58051100   
   309       H         23.56934400      8.48948900      7.43281600   
   310       H          8.48948900      7.43281600     23.56934400   
   311       H         12.53565600     15.58051100     19.46781600   
   312       H          7.43281600     23.56934400      8.48948900   
   313       H         13.74878400     20.12733400     19.49910700   
   314       H         14.10983400     19.76628400     10.58839300   
   315       H          4.57089300      1.71378400     15.97766600   
   316       H         15.97766600      4.57089300      1.71378400   
   317       H         19.49910700     13.74878400     20.12733400   
   318       H         20.12733400     19.49910700     13.74878400   
   319       H          1.71378400     15.97766600      4.57089300   
   320       H          2.07483400     16.33871600     13.48160700   
   321       H          4.30371600     22.62339300     21.99516600   
   322       H         21.99516600      4.30371600     22.62339300   
   323       H         22.62339300     21.99516600      4.30371600   
   324       H         16.33871600     13.48160700      2.07483400   
   325       H         13.48160700      2.07483400     16.33871600   
   326       H          3.94266600      7.46410700     22.35621600   
   327       H         10.32121600      8.09233400     16.60589300   
   328       H         22.35621600      3.94266600      7.46410700   
   329       H         16.60589300     10.32121600      8.09233400   
   330       H          7.46410700     22.35621600      3.94266600   
   331       H          8.09233400     16.60589300     10.32121600   
   332       H         19.76628400     10.58839300     14.10983400   
   333       H          1.44660700      9.96016600      7.73128400   
   334       H          9.96016600      7.73128400      1.44660700   
   335       H         10.58839300     14.10983400     19.76628400   
   336       H          7.73128400      1.44660700      9.96016600   
   337       H         14.00392600     17.89845200     20.33674300   
   338       H         11.88095200     20.02142600      9.75075700   
   339       H          3.73325700      1.96892600     18.20654800   
   340       H         18.20654800      3.73325700      1.96892600   
   341       H         20.33674300     14.00392600     17.89845200   
   342       H         17.89845200     20.33674300     14.00392600   
   343       H          1.96892600     18.20654800      3.73325700   
   344       H         23.91595200     16.08357400     14.31924300   
   345       H          4.04857400     21.78575700      0.15404800   
   346       H          0.15404800      4.04857400     21.78575700   
   347       H         21.78575700      0.15404800      4.04857400   
   348       H         16.08357400     14.31924300     23.91595200   
   349       H         14.31924300     23.91595200     16.08357400   
   350       H          6.17154800      8.30174300     22.10107400   
   351       H         10.06607400      5.86345200     15.76825700   
   352       H         22.10107400      6.17154800      8.30174300   
   353       H         15.76825700     10.06607400      5.86345200   
   354       H          8.30174300     22.10107400      6.17154800   
   355       H          5.86345200     15.76825700     10.06607400   
   356       H         20.02142600      9.75075700     11.88095200   
   357       H          2.28424300     12.18904800      7.98642600   
   358       H         12.18904800      7.98642600      2.28424300   
   359       H          9.75075700     11.88095200     20.02142600   
   360       H          7.98642600      2.28424300     12.18904800   
   361      Tv         24.07000000      0.00000000      0.00000000   
   362      Tv          0.00000000     24.07000000      0.00000000   
   363      Tv          0.00000000      0.00000000     24.07000000   

                             CARTESIAN COORDINATES

   1    C       17.766067000    14.461256000    21.229740000
   2    C        8.443756000    23.783567000     8.857760000
   3    C        2.840260000     5.731067000    21.643744000
   4    C       21.643744000     2.840260000     5.731067000
   5    C       21.229740000    17.766067000    14.461256000
   6    C       14.461256000    21.229740000    17.766067000
   7    C        5.731067000    21.643744000     2.840260000
   8    C       20.478756000    12.321433000    15.212240000
   9    C        0.286433000    20.892760000     3.591244000
  10    C        3.591244000     0.286433000    20.892760000
  11    C       20.892760000     3.591244000     0.286433000
  12    C       12.321433000    15.212240000    20.478756000
  13    C       15.212240000    20.478756000    12.321433000
  14    C        9.608744000     9.194740000    18.338933000
  15    C        6.303933000     2.426256000    14.875260000
  16    C       18.338933000     9.608744000     9.194740000
  17    C       14.875260000     6.303933000     2.426256000
  18    C        9.194740000    18.338933000     9.608744000
  19    C        2.426256000    14.875260000     6.303933000
  20    C       23.783567000     8.857760000     8.443756000
  21    C        3.177240000    15.626244000    11.748567000
  22    C       15.626244000    11.748567000     3.177240000
  23    C        8.857760000     8.443756000    23.783567000
  24    C       11.748567000     3.177240000    15.626244000
  25    C       18.940683000    14.636967000    20.420988000
  26    C        8.619467000     0.888183000     9.666512000
  27    C        3.649012000     6.905683000    21.468033000
  28    C       21.468033000     3.649012000     6.905683000
  29    C       20.420988000    18.940683000    14.636967000
  30    C       14.636967000    20.420988000    18.940683000
  31    C        6.905683000    21.468033000     3.649012000
  32    C       20.654467000    11.146817000    14.403488000
  33    C       23.181817000    21.701512000     3.415533000
  34    C        3.415533000    23.181817000    21.701512000
  35    C       21.701512000     3.415533000    23.181817000
  36    C       11.146817000    14.403488000    20.654467000
  37    C       14.403488000    20.654467000    11.146817000
  38    C        9.433033000     8.385988000    17.164317000
  39    C        5.129317000     2.601967000    15.684012000
  40    C       17.164317000     9.433033000     8.385988000
  41    C       15.684012000     5.129317000     2.601967000
  42    C        8.385988000    17.164317000     9.433033000
  43    C        2.601967000    15.684012000     5.129317000
  44    C        0.888183000     9.666512000     8.619467000
  45    C        2.368488000    15.450533000    12.923183000
  46    C       15.450533000    12.923183000     2.368488000
  47    C        9.666512000     8.619467000     0.888183000
  48    C       12.923183000     2.368488000    15.450533000
  49    C       14.793422000    17.303923000    20.813329000
  50    C       11.286423000    20.810922000     9.274171000
  51    C        3.256671000     2.758422000    18.801077000
  52    C       18.801077000     3.256671000     2.758422000
  53    C       20.813329000    14.793422000    17.303923000
  54    C       17.303923000    20.813329000    14.793422000
  55    C        2.758422000    18.801077000     3.256671000
  56    C       23.321423000    15.294078000    14.795829000
  57    C        3.259078000    21.309171000     0.748577000
  58    C        0.748577000     3.259078000    21.309171000
  59    C       21.309171000     0.748577000     3.259078000
  60    C       15.294078000    14.795829000    23.321423000
  61    C       14.795829000    23.321423000    15.294078000
  62    C        6.766077000     8.778329000    21.311578000
  63    C        9.276578000     5.268923000    15.291671000
  64    C       21.311578000     6.766077000     8.778329000
  65    C       15.291671000     9.276578000     5.268923000
  66    C        8.778329000    21.311578000     6.766077000
  67    C        5.268923000    15.291671000     9.276578000
  68    C       20.810922000     9.274171000    11.286423000
  69    C        2.760829000    12.783577000     8.775922000
  70    C       12.783577000     8.775922000     2.760829000
  71    C        9.274171000    11.286423000    20.810922000
[...]
  293          H           0.167208        0.8328     0.83279
  294          H           0.167509        0.8325     0.83249
  295          H           0.167131        0.8329     0.83287
  296          H           0.151644        0.8484     0.84836
  297          H           0.153173        0.8468     0.84683
  298          H           0.150146        0.8499     0.84985
  299          H           0.152326        0.8477     0.84767
  300          H           0.149553        0.8504     0.85045
  301          H           0.149977        0.8500     0.85002
  302          H           0.165102        0.8349     0.83490
  303          H           0.166478        0.8335     0.83352
  304          H           0.165906        0.8341     0.83409
  305          H           0.163503        0.8365     0.83650
  306          H           0.166870        0.8331     0.83313
  307          H           0.166433        0.8336     0.83357
  308          H           0.149616        0.8504     0.85038
  309          H           0.154679        0.8453     0.84532
  310          H           0.152200        0.8478     0.84780
  311          H           0.151811        0.8482     0.84819
  312          H           0.153068        0.8469     0.84693
  313          H           0.170019        0.8300     0.82998
  314          H           0.154979        0.8450     0.84502
  315          H           0.171549        0.8285     0.82845
  316          H           0.171924        0.8281     0.82808
  317          H           0.173610        0.8264     0.82639
  318          H           0.172160        0.8278     0.82784
  319          H           0.172088        0.8279     0.82791
  320          H           0.161812        0.8382     0.83819
  321          H           0.154819        0.8452     0.84518
  322          H           0.158993        0.8410     0.84101
  323          H           0.162593        0.8374     0.83741
  324          H           0.155932        0.8441     0.84407
  325          H           0.159636        0.8404     0.84036
  326          H           0.169011        0.8310     0.83099
  327          H           0.172806        0.8272     0.82719
  328          H           0.169477        0.8305     0.83052
  329          H           0.169869        0.8301     0.83013
  330          H           0.170994        0.8290     0.82901
  331          H           0.172190        0.8278     0.82781
  332          H           0.158560        0.8414     0.84144
  333          H           0.156237        0.8438     0.84376
  334          H           0.162370        0.8376     0.83763
  335          H           0.154175        0.8458     0.84582
  336          H           0.162263        0.8377     0.83774
  337          H           0.178637        0.8214     0.82136
  338          H           0.164861        0.8351     0.83514
  339          H           0.176405        0.8236     0.82360
  340          H           0.181503        0.8185     0.81850
  341          H           0.182320        0.8177     0.81768
  342          H           0.177624        0.8224     0.82238
  343          H           0.178471        0.8215     0.82153
  344          H           0.159392        0.8406     0.84061
  345          H           0.164313        0.8357     0.83569
  346          H           0.170481        0.8295     0.82952
  347          H           0.158774        0.8412     0.84123
  348          H           0.168341        0.8317     0.83166
  349          H           0.169702        0.8303     0.83030
  350          H           0.177702        0.8223     0.82230
  351          H           0.182422        0.8176     0.81758
  352          H           0.175350        0.8247     0.82465
  353          H           0.178786        0.8212     0.82121
  354          H           0.178309        0.8217     0.82169
  355          H           0.179451        0.8205     0.82055
  356          H           0.171279        0.8287     0.82872
  357          H           0.162710        0.8373     0.83729
  358          H           0.157438        0.8426     0.84256
  359          H           0.163810        0.8362     0.83619
  360          H           0.158873        0.8411     0.84113


          ATOMIC ORBITAL ELECTRON POPULATIONS

     Atom    s        px        py        pz   
    1  C   1.09898   0.94890   1.06915   0.92335
    2  C   1.09437   1.05924   0.95585   0.93695
    3  C   1.09379   0.95561   0.96285   1.06973
    4  C   1.09562   1.07219   0.95123   0.96032
    5  C   1.09766   0.93856   0.95457   1.07210
    6  C   1.09443   1.06990   0.95236   0.96143
    7  C   1.09616   0.95775   1.07106   0.94435
    8  C   1.08920   1.05979   0.96813   0.96873
    9  C   1.09445   0.95539   0.93550   1.05838
   10  C   1.08462   1.06677   0.98589   1.00821
   11  C   1.09066   0.95787   1.05920   0.96326
   12  C   1.08419   0.98665   1.00981   1.06581
   13  C   1.08437   1.00973   1.06674   0.98649
   14  C   1.09891   1.06972   0.92544   0.94989
   15  C   1.09720   0.95607   1.07189   0.94164
   16  C   1.09426   0.96157   1.06809   0.95099
   17  C   1.09926   0.92636   0.94989   1.07109
   18  C   1.09734   0.93601   0.95453   1.07010
   19  C   1.09743   1.07113   0.93746   0.95479
   20  C   1.08633   0.98130   0.99769   1.06689
   21  C   1.09448   0.93362   1.05768   0.95434
   22  C   1.08934   1.06064   0.96796   0.96747
   23  C   1.09440   0.93624   1.05847   0.95603
   24  C   1.09126   0.96149   0.95361   1.05853
   25  C   1.08175   1.02778   1.06245   1.04472
   26  C   1.07822   1.06140   1.03163   1.05878
   27  C   1.08268   1.02814   1.01821   1.05799
   28  C   1.08326   1.05922   1.03015   1.01929
   29  C   1.08305   1.03460   1.02214   1.06071
   30  C   1.08279   1.05828   1.02814   1.01831
   31  C   1.08277   1.02130   1.05960   1.03303
   32  C   1.07699   1.05596   1.02786   1.05182
   33  C   1.07788   1.03290   1.06125   1.06194
   34  C   1.08185   1.05034   1.00658   1.01311
   35  C   1.07637   1.05937   1.05706   1.03232
   36  C   1.08133   1.00768   1.01563   1.05053
   37  C   1.08190   1.01215   1.05026   1.00604
   38  C   1.08176   1.06218   1.04507   1.02769
   39  C   1.08309   1.02159   1.06078   1.03407
   40  C   1.08207   1.02070   1.05949   1.03337
   41  C   1.08186   1.04546   1.02795   1.06208
   42  C   1.08229   1.03828   1.02411   1.06117
   43  C   1.08265   1.06090   1.03643   1.02325
   44  C   1.08195   1.00875   1.01659   1.05170
   45  C   1.07721   1.06566   1.06203   1.03533
   46  C   1.07657   1.05500   1.03040   1.05578
   47  C   1.07777   1.06246   1.06233   1.03363
   48  C   1.07625   1.03339   1.06154   1.05814
   49  C   1.08076   1.03330   1.03901   1.09310
   50  C   1.09508   0.98723   1.03294   0.93099
   51  C   1.08182   1.08638   1.03560   1.03795
   52  C   1.07904   1.04867   1.13081   1.04061
   53  C   1.07908   1.12964   1.03894   1.04912
   54  C   1.08150   1.03902   1.09004   1.03533
   55  C   1.07936   1.03711   1.04266   1.11364
   56  C   1.10187   0.97780   1.03786   0.88410
   57  C   1.09562   1.03269   0.92511   0.98580
   58  C   1.09300   1.00209   1.04117   0.97742
   59  C   1.10136   0.88386   0.97825   1.03550
   60  C   1.09518   1.04198   0.95693   0.99571
   61  C   1.09368   0.97212   1.00079   1.04169
   62  C   1.07966   1.03864   1.10316   1.03463
   63  C   1.07942   1.04051   1.04832   1.12911
   64  C   1.08287   1.03555   1.03343   1.07344
   65  C   1.07831   1.12100   1.03521   1.04428
   66  C   1.07977   1.10704   1.03639   1.04038
   67  C   1.07895   1.04425   1.12016   1.03778
   68  C   1.09125   1.03976   0.99103   1.00572
   69  C   1.09715   0.91001   0.98213   1.03240
   70  C   1.09910   0.98044   1.03630   0.90080
   71  C   1.09473   0.93429   0.98786   1.03346
   72  C   1.10208   1.03569   0.87744   0.97647
   73  C   1.06263   0.96174   1.04223   1.00110
   74  C   1.07856   0.89616   0.96033   0.94047
   75  C   1.06555   0.99406   0.96466   1.02194
   76  C   1.05549   1.10643   1.02548   0.97246
   77  C   1.05554   1.02534   0.97017   1.10611
   78  C   1.06503   1.02683   0.99603   0.96468
   79  C   1.05837   0.96838   1.07658   1.01426
   80  C   1.08593   0.84879   0.96461   0.92127
   81  C   1.07953   0.95995   0.93703   0.88845
   82  C   1.07886   0.91377   0.97081   0.95092
   83  C   1.08546   0.92124   0.85001   0.96191
   84  C   1.07968   0.97144   0.94721   0.90463
   85  C   1.07954   0.94888   0.90853   0.97102
   86  C   1.05860   1.07034   1.01100   0.96519
   87  C   1.05504   0.97227   1.11062   1.02681
   88  C   1.06669   0.96441   1.01003   0.98882
   89  C   1.05473   1.02284   0.96586   1.10201
   90  C   1.05876   1.01205   0.96731   1.07167
   91  C   1.05677   1.08976   1.01908   0.96905
   92  C   1.07667   0.96965   0.95703   0.92925
   93  C   1.08081   0.93247   0.87759   0.95920
   94  C   1.08135   0.87528   0.96306   0.93200
   95  C   1.07751   0.94260   0.90209   0.96087
   96  C   1.08586   0.96211   0.91990   0.84709
   97  C   1.06786   1.01530   1.02630   1.09349
   98  C   1.07010   1.04300   1.01158   1.08629
   99  C   1.07007   1.05020   1.00066   1.01949
  100  C   1.07014   1.02324   1.06258   1.00407
  101  C   1.06946   1.07444   1.00881   1.02408
  102  C   1.06983   1.01990   1.05438   1.00227
  103  C   1.06923   1.00750   1.02200   1.06968
  104  C   1.07229   1.02102   0.98603   1.00081
  105  C   1.07009   1.01186   1.08704   1.04337
  106  C   1.07670   1.01822   0.97103   0.95592
  107  C   1.07134   1.02181   1.02460   0.99317
  108  C   1.07659   0.96957   0.95205   1.01749
  109  C   1.07683   0.95001   1.01711   0.96892
  110  C   1.06778   1.02678   1.09634   1.01629
  111  C   1.06966   1.00731   1.02461   1.07199
  112  C   1.06962   1.00276   1.02139   1.05835
  113  C   1.06801   1.09677   1.01685   1.02661
  114  C   1.06866   1.07953   1.01062   1.02374
  115  C   1.06893   1.02350   1.07747   1.00990
  116  C   1.07582   0.97843   0.97959   1.02273
  117  C   1.06964   1.08791   1.04286   1.01209
  118  C   1.07147   1.02372   0.99347   1.01944
  119  C   1.07048   1.08670   1.04385   1.01195
  120  C   1.07109   0.99457   1.02785   1.02645
  121  C   1.08438   1.07877   0.97284   0.99179
  122  C   1.11012   0.90664   1.08915   0.81360
  123  C   1.08337   1.00446   1.08069   0.97564
  124  C   1.08027   0.98573   1.03429   1.08296
  125  C   1.07959   1.03573   1.08163   0.98649
  126  C   1.08305   0.97696   1.00698   1.08037
  127  C   1.08130   1.08025   0.98170   1.01912
  128  C   1.10960   0.89984   1.08992   0.82745
  129  C   1.11119   1.08972   0.80708   0.90386
  130  C   1.09013   0.95493   1.07764   0.94759
  131  C   1.11257   0.80949   0.89351   1.09117
  132  C   1.09272   1.07817   0.92999   0.94797
  133  C   1.09043   0.94660   0.95363   1.07851
  134  C   1.08394   0.97371   0.99396   1.07855
  135  C   1.08042   1.08304   0.98482   1.03248
  136  C   1.08536   1.08120   0.96995   0.98870
  137  C   1.08102   1.01388   1.07772   0.98005
  138  C   1.08252   1.00898   1.08012   0.97853
  139  C   1.08046   0.98339   1.02436   1.08014
  140  C   1.09005   1.07745   0.94780   0.95667
  141  C   1.11448   0.78880   0.89528   1.09216
  142  C   1.11090   0.89657   1.08993   0.81711
  143  C   1.10950   0.81747   0.90822   1.08883
  144  C   1.11427   1.09292   0.80046   0.89015
  145  C   1.16237   0.97319   0.54327   0.96196
  146  C   1.15422   0.61353   0.97219   1.00168
  147  C   1.11326   1.00523   0.96660   0.82040
  148  C   1.11328   0.81751   0.97914   1.03253
  149  C   1.11644   0.97694   1.03253   0.80063
  150  C   1.12134   0.77503   1.00262   0.95713
  151  C   1.11234   1.03321   0.82215   0.97928
  152  C   1.14222   0.68368   0.99111   1.00427
  153  C   1.15194   0.97676   1.00287   0.62778
  154  C   1.15275   0.62897   0.98064   1.00174
  155  C   1.14364   1.00441   0.67722   0.99086
  156  C   1.14849   0.98523   1.00414   0.65117
  157  C   1.15111   0.99958   0.63830   0.98442
  158  C   1.16035   0.55444   0.96671   0.96493
  159  C   1.12775   1.02915   0.73830   0.96905
  160  C   1.12415   0.95530   0.75962   1.00070
  161  C   1.16274   0.96099   0.97514   0.54173
  162  C   1.12179   1.00257   0.95619   0.77188
  163  C   1.16260   0.54012   0.96007   0.97644
  164  C   1.15296   0.98029   1.00031   0.62764
  165  C   1.15289   1.00171   0.62095   0.97455
  166  C   1.14972   0.64254   0.98194   1.00368
  167  C   1.15080   1.00300   0.63720   0.98162
  168  C   1.14301   0.98721   1.00391   0.67739
  169  C   1.08215   0.96662   0.96923   0.88605
  170  C   1.07838   0.94668   0.96763   0.85653
  171  C   1.07530   0.93761   0.97255   0.97499
  172  C   1.07566   0.97829   0.95496   0.97311
  173  C   1.07776   0.93876   0.97096   0.97663
  174  C   1.07607   0.97499   0.93351   0.97202
  175  C   1.07844   0.97027   0.97565   0.92419
  176  C   1.06366   0.94866   0.97548   0.95859
  177  C   1.07817   0.96742   0.85500   0.94540
  178  C   1.06148   0.97239   0.98489   1.02288
  179  C   1.06663   0.93119   0.94564   0.97206
  180  C   1.06022   0.98516   1.02655   0.97037
  181  C   1.06048   1.02907   0.97216   0.98557
  182  C   1.08287   0.96943   0.88403   0.96621
  183  C   1.07668   0.97195   0.97662   0.94696
  184  C   1.07588   0.97182   0.97186   0.92669
  185  C   1.08273   0.89410   0.96627   0.97145
  186  C   1.07989   0.90988   0.96895   0.97302
  187  C   1.07921   0.97495   0.92087   0.96962
  188  C   1.06500   0.98227   0.99802   0.97171
  189  C   1.07780   0.85102   0.94251   0.96669
  190  C   1.06770   0.94774   0.97181   0.92776
  191  C   1.07821   0.85796   0.94686   0.96762
  192  C   1.06722   0.97168   0.92454   0.94393
  193  C   1.08176   0.95995   0.95890   0.88425
  194  C   1.05903   1.00384   0.95429   1.09559
  195  C   1.08253   0.86936   0.95771   0.95431
  196  C   1.08987   0.94311   0.80645   0.95485
  197  C   1.08942   0.81175   0.95619   0.94444
  198  C   1.08312   0.95362   0.86525   0.95822
  199  C   1.08506   0.95746   0.95083   0.84718
  200  C   1.05573   0.99888   0.94364   1.10568
  201  C   1.05818   0.95425   1.10308   1.00510
  202  C   1.07240   0.97089   0.94569   0.95724
  203  C   1.05402   1.12269   1.00214   0.94633
  204  C   1.07000   0.94416   0.97945   0.97551
  205  C   1.07198   0.96003   0.97135   0.94495
  206  C   1.08163   0.95851   0.88210   0.95897
  207  C   1.08995   0.95495   0.94397   0.80773
  208  C   1.08049   0.95742   0.95893   0.88949
  209  C   1.08440   0.85502   0.95803   0.95294
  210  C   1.08378   0.86082   0.95801   0.95399
  211  C   1.08621   0.94951   0.83793   0.95688
  212  C   1.07334   0.94832   0.95285   0.97110
  213  C   1.05567   1.12399   1.00853   0.95365
  214  C   1.05383   1.00045   0.94564   1.11810
  215  C   1.05937   1.09190   1.00311   0.95403
  216  C   1.05359   0.94625   1.12944   1.00429
  217  C   1.08470   0.92160   0.95744   0.89089
  218  C   1.09222   0.95876   0.93459   0.90540
  219  C   1.08125   0.91803   0.94245   0.96257
  220  C   1.08495   0.96115   0.90612   0.93639
  221  C   1.08555   0.89815   0.92986   0.95999
  222  C   1.08157   0.96245   0.91632   0.94137
  223  C   1.08292   0.93530   0.96085   0.90690
  224  C   1.08383   0.96981   0.93990   0.92815
  225  C   1.09267   0.93223   0.90262   0.95804
  226  C   1.08026   0.97227   0.97744   0.96689
  227  C   1.08556   0.91909   0.96805   0.93392
  228  C   1.08019   0.97605   0.96642   0.97233
  229  C   1.07986   0.96842   0.97296   0.97791
  230  C   1.08448   0.95739   0.89152   0.92231
  231  C   1.08605   0.92989   0.95983   0.89787
  232  C   1.08191   0.93644   0.96037   0.91104
  233  C   1.08506   0.88957   0.92170   0.95742
  234  C   1.08374   0.89909   0.92885   0.95890
  235  C   1.08426   0.95950   0.89924   0.92982
  236  C   1.08197   0.97375   0.95925   0.96989
  237  C   1.09286   0.89998   0.95851   0.92901
  238  C   1.08432   0.96954   0.94113   0.92756
  239  C   1.09286   0.90073   0.95675   0.93144
  240  C   1.08654   0.93125   0.91507   0.96704
  241  C   1.06412   0.99316   0.97773   1.02883
  242  C   1.06046   1.00160   0.98952   1.07529
  243  C   1.06390   1.01830   0.98492   0.97769
  244  C   1.06513   0.96919   0.99394   0.98006
  245  C   1.06527   0.99905   0.98371   0.96942
  246  C   1.06408   0.97719   1.01779   0.98563
  247  C   1.06445   0.98502   0.97294   1.00959
  248  C   1.06123   1.00517   0.97647   1.06188
  249  C   1.06017   0.99011   1.07905   1.00281
  250  C   1.06292   0.99028   0.96609   1.01626
  251  C   1.06104   1.06969   1.00572   0.98088
  252  C   1.06252   0.96516   1.01964   0.99229
  253  C   1.06289   1.01630   0.99096   0.96532
  254  C   1.06427   0.97559   1.02250   0.99084
  255  C   1.06513   0.98185   0.96946   0.99656
  256  C   1.06323   0.98652   0.98049   1.02663
  257  C   1.06509   1.01104   0.98870   0.97128
  258  C   1.06415   1.01611   0.98747   0.97449
  259  C   1.06455   0.97206   1.00832   0.98557
  260  C   1.06278   0.96972   1.01964   0.98886
  261  C   1.06010   1.08353   1.00485   0.99081
  262  C   1.06192   1.00283   0.97845   1.05851
  263  C   1.05982   1.07759   1.00128   0.98993
  264  C   1.06077   0.98182   1.07354   1.00683
  265  B   0.63007   0.83914   0.70328   0.93907
  266  B   0.66164   0.60830   0.84832   0.93807
  267  B   0.62558   0.93919   0.84645   0.71510
  268  B   0.63065   0.70956   0.93893   0.83319
  269  B   0.63138   0.93590   0.82992   0.70654
  270  B   0.62796   0.70702   0.93978   0.84055
  271  B   0.63197   0.83002   0.69466   0.93801
  272  B   0.57859   0.97328   0.94341   0.91988
  273  B   0.66426   0.84393   0.93858   0.60166
  274  B   0.55661   1.02908   1.01793   0.93272
  275  B   0.59569   0.92031   0.90578   0.91509
  276  B   0.55520   1.01818   0.93440   1.03837
  277  B   0.55416   0.92985   1.03972   1.01965
  278  B   0.62863   0.70987   0.93933   0.84365
  279  B   0.63119   0.83098   0.70936   0.93642
  280  B   0.62632   0.84775   0.71258   0.94051
  281  B   0.62566   0.93836   0.84907   0.72565
  282  B   0.63130   0.93848   0.83287   0.69821
  283  B   0.63138   0.70118   0.93759   0.83167
  284  B   0.56778   1.00467   0.93499   0.97604
  285  B   0.66923   0.93551   0.58951   0.82916
  286  B   0.60216   0.88151   0.90479   0.92094
  287  B   0.66207   0.93805   0.60983   0.85154
  288  B   0.60124   0.90505   0.91957   0.88228
  289  H   0.83445
  290  H   0.84672
  291  H   0.83341
  292  H   0.83384
  293  H   0.83279
  294  H   0.83249
  295  H   0.83287
  296  H   0.84836
  297  H   0.84683
  298  H   0.84985
  299  H   0.84767
  300  H   0.85045
  301  H   0.85002
  302  H   0.83490
  303  H   0.83352
  304  H   0.83409
  305  H   0.83650
  306  H   0.83313
  307  H   0.83357
  308  H   0.85038
  309  H   0.84532
  310  H   0.84780
  311  H   0.84819
  312  H   0.84693
  313  H   0.82998
  314  H   0.84502
  315  H   0.82845
  316  H   0.82808
  317  H   0.82639
  318  H   0.82784
  319  H   0.82791
  320  H   0.83819
  321  H   0.84518
  322  H   0.84101
  323  H   0.83741
  324  H   0.84407
  325  H   0.84036
  326  H   0.83099
  327  H   0.82719
  328  H   0.83052
  329  H   0.83013
  330  H   0.82901
  331  H   0.82781
  332  H   0.84144
  333  H   0.84376
  334  H   0.83763
  335  H   0.84582
  336  H   0.83774
  337  H   0.82136
  338  H   0.83514
  339  H   0.82360
  340  H   0.81850
  341  H   0.81768
  342  H   0.82238
  343  H   0.82153
  344  H   0.84061
  345  H   0.83569
  346  H   0.82952
  347  H   0.84123
  348  H   0.83166
  349  H   0.83030
  350  H   0.82230
  351  H   0.81758
  352  H   0.82465
  353  H   0.82121
  354  H   0.82169
  355  H   0.82055
  356  H   0.82872
  357  H   0.83729
  358  H   0.84256
  359  H   0.83619
  360  H   0.84113

 **********************
 *                    *
 * JOB ENDED NORMALLY *
 *                    *
 **********************



 TOTAL JOB TIME:          1635.96 SECONDS

 == MOPAC DONE ==
