 *******************************************************************************
 **                                                                           **
 **                              MOPAC v22.1.0                                **
 **                                                                           **
 *******************************************************************************
 **          Digital Object Identifier (DOI): 10.5281/zenodo.6511958          **
 **    Visit the DOI location for information on how to cite this program.    **
 *******************************************************************************

                              PM7 CALCULATION RESULTS

 *******************************************************************************
 *  CALCULATION DONE:                                Wed Jan 31 16:27:41 2024  *
 *  PM7        - The PM7 Hamiltonian to be used
 *  NOOPT      - DO NOT OPTIMIZE ANY COORDINATES
 *
 *
 *
 *                 CHARGE ON SYSTEM = 0
 *
 *
 *
 *  T=         - A TIME OF 172800.0 SECONDS REQUESTED
 *  DUMP=N     - RESTART FILE WRITTEN EVERY 7200.0 SECONDS REQUESTED
 *******************************************************************************
PM7 CHARGE=0 NOOPT


   ATOM   CHEMICAL          X               Y               Z
  NUMBER   SYMBOL      (ANGSTROMS)     (ANGSTROMS)     (ANGSTROMS)

     1       C         17.76606700     14.46125600     21.22974000   
     2       C          8.44375600     23.78356700      8.85776000   
     3       C          2.84026000      5.73106700     21.64374400   
     4       C         21.64374400      2.84026000      5.73106700   
     5       C         21.22974000     17.76606700     14.46125600   
     6       C         14.46125600     21.22974000     17.76606700   
     7       C          5.73106700     21.64374400      2.84026000   
     8       C         20.47875600     12.32143300     15.21224000   
     9       C          0.28643300     20.89276000      3.59124400   
    10       C          3.59124400      0.28643300     20.89276000   
    11       C         20.89276000      3.59124400      0.28643300   
    12       C         12.32143300     15.21224000     20.47875600   
    13       C         15.21224000     20.47875600     12.32143300   
    14       C          9.60874400      9.19474000     18.33893300   
    15       C          6.30393300      2.42625600     14.87526000   
    16       C         18.33893300      9.60874400      9.19474000   
    17       C         14.87526000      6.30393300      2.42625600   
    18       C          9.19474000     18.33893300      9.60874400   
    19       C          2.42625600     14.87526000      6.30393300   
    20       C         23.78356700      8.85776000      8.44375600   
    21       C          3.17724000     15.62624400     11.74856700   
    22       C         15.62624400     11.74856700      3.17724000   
    23       C          8.85776000      8.44375600     23.78356700   
    24       C         11.74856700      3.17724000     15.62624400   
    25       C         18.94068300     14.63696700     20.42098800   
    26       C          8.61946700      0.88818300      9.66651200   
    27       C          3.64901200      6.90568300     21.46803300   
    28       C         21.46803300      3.64901200      6.90568300   
    29       C         20.42098800     18.94068300     14.63696700   
    30       C         14.63696700     20.42098800     18.94068300   
    31       C          6.90568300     21.46803300      3.64901200   
    32       C         20.65446700     11.14681700     14.40348800   
    33       C         23.18181700     21.70151200      3.41553300   
    34       C          3.41553300     23.18181700     21.70151200   
    35       C         21.70151200      3.41553300     23.18181700   
    36       C         11.14681700     14.40348800     20.65446700   
    37       C         14.40348800     20.65446700     11.14681700   
    38       C          9.43303300      8.38598800     17.16431700   
    39       C          5.12931700      2.60196700     15.68401200   
    40       C         17.16431700      9.43303300      8.38598800   
    41       C         15.68401200      5.12931700      2.60196700   
    42       C          8.38598800     17.16431700      9.43303300   
    43       C          2.60196700     15.68401200      5.12931700   
    44       C          0.88818300      9.66651200      8.61946700   
    45       C          2.36848800     15.45053300     12.92318300   
    46       C         15.45053300     12.92318300      2.36848800   
    47       C          9.66651200      8.61946700      0.88818300   
    48       C         12.92318300      2.36848800     15.45053300   
    49       C         14.79342200     17.30392300     20.81332900   
    50       C         11.28642300     20.81092200      9.27417100   
    51       C          3.25667100      2.75842200     18.80107700   
    52       C         18.80107700      3.25667100      2.75842200   
    53       C         20.81332900     14.79342200     17.30392300   
    54       C         17.30392300     20.81332900     14.79342200   
    55       C          2.75842200     18.80107700      3.25667100   
    56       C         23.32142300     15.29407800     14.79582900   
    57       C          3.25907800     21.30917100      0.74857700   
    58       C          0.74857700      3.25907800     21.30917100   
    59       C         21.30917100      0.74857700      3.25907800   
    60       C         15.29407800     14.79582900     23.32142300   
    61       C         14.79582900     23.32142300     15.29407800   
    62       C          6.76607700      8.77832900     21.31157800   
    63       C          9.27657800      5.26892300     15.29167100   
    64       C         21.31157800      6.76607700      8.77832900   
    65       C         15.29167100      9.27657800      5.26892300   
    66       C          8.77832900     21.31157800      6.76607700   
    67       C          5.26892300     15.29167100      9.27657800   
    68       C         20.81092200      9.27417100     11.28642300   
    69       C          2.76082900     12.78357700      8.77592200   
    70       C         12.78357700      8.77592200      2.76082900   
    71       C          9.27417100     11.28642300     20.81092200   
    72       C          8.77592200      2.76082900     12.78357700   
    73       C         15.55884800     15.38313700     22.14199300   
    74       C          9.36563700     21.57634800      7.94550700   
    75       C          1.92800700      3.52384800     20.72186300   
    76       C         20.72186300      1.92800700      3.52384800   
    77       C         22.14199300     15.55884800     15.38313700   
    78       C         15.38313700     22.14199300     15.55884800   
    79       C          3.52384800     20.72186300      1.92800700   
    80       C         21.40063700     14.52865200     16.12449300   
    81       C          2.49365200     19.98050700      2.66936300   
    82       C          2.66936300      2.49365200     19.98050700   
    83       C         19.98050700      2.66936300      2.49365200   
    84       C         14.52865200     16.12449300     21.40063700   
    85       C         16.12449300     21.40063700     14.52865200   
    86       C          8.68686300     10.10699300     20.54615200   
    87       C          8.51115200      3.34813700     13.96300700   
    88       C         20.54615200      8.68686300     10.10699300   
    89       C         13.96300700      8.51115200      3.34813700   
    90       C         10.10699300     20.54615200      8.68686300   
    91       C          3.34813700     13.96300700      8.51115200   
    92       C         21.57634800      7.94550700      9.36563700   
    93       C          4.08949300     14.70436300      9.54134800   
    94       C         14.70436300      9.54134800      4.08949300   
    95       C          7.94550700      9.36563700     21.57634800   
    96       C          9.54134800      4.08949300     14.70436300   
    97       C         19.21748800     19.98050700     17.98510400   
    98       C         13.96300700      1.16498800     12.10239600   
    99       C          6.08489600      7.18248800     16.12449300   
   100       C         16.12449300      6.08489600      7.18248800   
   101       C         17.98510400     19.21748800     19.98050700   
   102       C         19.98050700     17.98510400     19.21748800   
   103       C          7.18248800     16.12449300      6.08489600   
   104       C          1.92800700     10.87001200     11.96760400   
   105       C         22.90501200      0.06739600     22.14199300   
   106       C         22.14199300     22.90501200      0.06739600   
   107       C          0.06739600     22.14199300     22.90501200   
   108       C         10.87001200     11.96760400      1.92800700   
   109       C         11.96760400      1.92800700     10.87001200   
   110       C          4.08949300      5.95010400     16.88751200   
   111       C          4.85251200      7.94550700     18.11989600   
   112       C         16.88751200      4.08949300      5.95010400   
   113       C         18.11989600      4.85251200      7.94550700   
   114       C          5.95010400     16.88751200      4.08949300   
   115       C          7.94550700     18.11989600      4.85251200   
   116       C          1.16498800     12.10239600     13.96300700   
   117       C         24.00260400     10.10699300     13.19998800   
   118       C         10.10699300     13.19998800     24.00260400   
   119       C         12.10239600     13.96300700      1.16498800   
   120       C         13.19998800     24.00260400     10.10699300   
   121       C         18.45687600     16.94528000     20.56300100   
   122       C         10.92778000      0.40437600      9.52449900   
   123       C          3.50699900      6.42187600     19.15972000   
   124       C         19.15972000      3.50699900      6.42187600   
   125       C         20.56300100     18.45687600     16.94528000   
   126       C         16.94528000     20.56300100     18.45687600   
   127       C          6.42187600     19.15972000      3.50699900   
   128       C         22.96278000     11.63062400     14.54550100   
   129       C         23.66562400     21.55949900      1.10722000   
   130       C          1.10722000     23.66562400     21.55949900   
   131       C         21.55949900      1.10722000     23.66562400   
   132       C         11.63062400     14.54550100     22.96278000   
   133       C         14.54550100     22.96278000     11.63062400   
   134       C          7.12472000      8.52800100     17.64812400   
   135       C          5.61312400      4.91028000     15.54199900   
   136       C         17.64812400      7.12472000      8.52800100   
   137       C         15.54199900      5.61312400      4.91028000   
   138       C          8.52800100     17.64812400      7.12472000   
   139       C          4.91028000     15.54199900      5.61312400   
   140       C          0.40437600      9.52449900     10.92778000   
   141       C          2.51050100     13.14222000     12.43937600   
   142       C         13.14222000     12.43937600      2.51050100   
   143       C          9.52449900     10.92778000      0.40437600   
   144       C         12.43937600      2.51050100     13.14222000   
   145       C         23.22514300     21.99035200     23.90873100   
   146       C         15.97285200      5.17264300      6.17876900   
   147       C          0.16126900     11.19014300     14.11464800   
   148       C         14.11464800      0.16126900     11.19014300   
   149       C         23.90873100     23.22514300     21.99035200   
   150       C         21.99035200     23.90873100     23.22514300   
   151       C         11.19014300     14.11464800      0.16126900   
   152       C          3.93785200      6.86235700     17.89123100   
   153       C         18.89735700     18.21376900     20.13214800   
   154       C         20.13214800     18.89735700     18.21376900   
   155       C         18.21376900     20.13214800     18.89735700   
   156       C          6.86235700     17.89123100      3.93785200   
   157       C         17.89123100      3.93785200      6.86235700   
   158       C          2.07964800     11.87373100     12.87985700   
   159       C          0.84485700      9.95535200     12.19626900   
   160       C         12.87985700      2.07964800     11.87373100   
   161       C         12.19626900      0.84485700      9.95535200   
   162       C         11.87373100     12.87985700      2.07964800   
   163       C          9.95535200     12.19626900      0.84485700   
   164       C          5.17264300      6.17876900     15.97285200   
   165       C          5.85623100      8.09714800     17.20764300   
   166       C          8.09714800     17.20764300      5.85623100   
   167       C          6.17876900     15.97285200      5.17264300   
   168       C         17.20764300      5.85623100      8.09714800   
   169       C         17.16672400     16.79123200     21.00829600   
   170       C         10.77373200     23.18422400      9.07920400   
   171       C          3.06170400      5.13172400     19.31376800   
   172       C         19.31376800      3.06170400      5.13172400   
   173       C         21.00829600     17.16672400     16.79123200   
   174       C         16.79123200     21.00829600     17.16672400   
   175       C          5.13172400     19.31376800      3.06170400   
   176       C         22.80873200     12.92077600     14.99079600   
   177       C          0.88577600     21.11420400      1.26126800   
   178       C          1.26126800      0.88577600     21.11420400   
   179       C         21.11420400      1.26126800      0.88577600   
   180       C         12.92077600     14.99079600     22.80873200   
   181       C         14.99079600     22.80873200     12.92077600   
   182       C          7.27876800      8.97329600     18.93827600   
   183       C          6.90327600      4.75623200     15.09670400   
   184       C         18.93827600      7.27876800      8.97329600   
   185       C         15.09670400      6.90327600      4.75623200   
   186       C          8.97329600     18.93827600      7.27876800   
   187       C          4.75623200     15.09670400      6.90327600   
   188       C         23.18422400      9.07920400     10.77373200   
   189       C          2.95579600     13.29626800     11.14922400   
   190       C         13.29626800     11.14922400      2.95579600   
   191       C          9.07920400     10.77373200     23.18422400   
   192       C         11.14922400      2.95579600     13.29626800   
   193       C         16.16300500     17.81420700     20.72908400   
   194       C         11.79670700     22.18050500      9.35841600   
   195       C          3.34091600      4.12800500     18.29079300   
   196       C         18.29079300      3.34091600      4.12800500   
   197       C         20.72908400     16.16300500     17.81420700   
   198       C         17.81420700     20.72908400     16.16300500   
   199       C          4.12800500     18.29079300      3.34091600   
   200       C         23.83170700     13.92449500     14.71158400   
   201       C          1.88949500     21.39341600      0.23829300   
   202       C          0.23829300      1.88949500     21.39341600   
   203       C         21.39341600      0.23829300      1.88949500   
   204       C         13.92449500     14.71158400     23.83170700   
   205       C         14.71158400     23.83170700     13.92449500   
   206       C          6.25579300      8.69408400     19.94199500   
   207       C          7.90699500      5.77920700     15.37591600   
   208       C         19.94199500      6.25579300      8.69408400   
   209       C         15.37591600      7.90699500      5.77920700   
   210       C          8.69408400     19.94199500      6.25579300   
   211       C          5.77920700     15.37591600      7.90699500   
   212       C         22.18050500      9.35841600     11.79670700   
   213       C          2.67658400     12.27329300     10.14550500   
   214       C         12.27329300     10.14550500      2.67658400   
   215       C          9.35841600     11.79670700     22.18050500   
   216       C         10.14550500      2.67658400     12.27329300   
   217       C         19.29932600     15.89101400     20.03346100   
   218       C          9.87351400      1.24682600     10.05403900   
   219       C          4.03653900      7.26432600     20.21398600   
   220       C         20.21398600      4.03653900      7.26432600   
   221       C         20.03346100     19.29932600     15.89101400   
   222       C         15.89101400     20.03346100     19.29932600   
   223       C          7.26432600     20.21398600      4.03653900   
   224       C         21.90851400     10.78817400     14.01596100   
   225       C         22.82317400     22.08903900      2.16148600   
   226       C          2.16148600     22.82317400     22.08903900   
   227       C         22.08903900      2.16148600     22.82317400   
   228       C         10.78817400     14.01596100     21.90851400   
   229       C         14.01596100     21.90851400     10.78817400   
   230       C          8.17898600      7.99846100     16.80567400   
   231       C          4.77067400      3.85601400     16.07153900   
   232       C         16.80567400      8.17898600      7.99846100   
   233       C         16.07153900      4.77067400      3.85601400   
   234       C          7.99846100     16.80567400      8.17898600   
   235       C          3.85601400     16.07153900      4.77067400   
   236       C          1.24682600     10.05403900      9.87351400   
   237       C          1.98096100     14.19648600     13.28182600   
   238       C         14.19648600     13.28182600      1.98096100   
   239       C         10.05403900      9.87351400      1.24682600   
   240       C         13.28182600      1.98096100     14.19648600   
   241       C         16.88029100     15.47701000     21.48728900   
   242       C          9.45951000     22.89779100      8.60021100   
   243       C          2.58271100      4.84529100     20.62799000   
   244       C         20.62799000      2.58271100      4.84529100   
   245       C         21.48728900     16.88029100     15.47701000   
   246       C         15.47701000     21.48728900     16.88029100   
   247       C          4.84529100     20.62799000      2.58271100   
   248       C         21.49451000     13.20720900     15.46978900   
   249       C          1.17220900     20.63521100      2.57549000   
   250       C          2.57549000      1.17220900     20.63521100   
   251       C         20.63521100      2.57549000      1.17220900   
   252       C         13.20720900     15.46978900     21.49451000   
   253       C         15.46978900     21.49451000     13.20720900   
   254       C          8.59299000      9.45228900     19.22470900   
   255       C          7.18970900      3.44201000     14.61771100   
   256       C         19.22470900      8.59299000      9.45228900   
   257       C         14.61771100      7.18970900      3.44201000   
   258       C          9.45228900     19.22470900      8.59299000   
   259       C          3.44201000     14.61771100      7.18970900   
   260       C         22.89779100      8.60021100      9.45951000   
   261       C          3.43478900     14.61049000     10.86279100   
   262       C         14.61049000     10.86279100      3.43478900   
   263       C          8.60021100      9.45951000     22.89779100   
   264       C         10.86279100      3.43478900     14.61049000   
   265       B         16.54812500     19.02011400     20.18991600   
   266       B         13.00261400     22.56562500      9.89758400   
   267       B          3.88008400      4.51312500     17.08488600   
   268       B         17.08488600      3.88008400      4.51312500   
   269       B         20.18991600     16.54812500     19.02011400   
   270       B         19.02011400     20.18991600     16.54812500   
   271       B          4.51312500     17.08488600      3.88008400   
   272       B          0.96761400     13.53937500     14.17241600   
   273       B          1.50437500     21.93258400     23.10238600   
   274       B         23.10238600      1.50437500     21.93258400   
   275       B         21.93258400     23.10238600      1.50437500   
   276       B         13.53937500     14.17241600      0.96761400   
   277       B         14.17241600      0.96761400     13.53937500   
   278       B          5.04988600      8.15491600     19.55687500   
   279       B          7.52187500      6.98511400     15.91508400   
   280       B         19.55687500      5.04988600      8.15491600   
   281       B         15.91508400      7.52187500      6.98511400   
   282       B          8.15491600     19.55687500      5.04988600   
   283       B          6.98511400     15.91508400      7.52187500   
   284       B         22.56562500      9.89758400     13.00261400   
   285       B          2.13741600     11.06738600     10.53062500   
   286       B         11.06738600     10.53062500      2.13741600   
   287       B          9.89758400     13.00261400     22.56562500   
   288       B         10.53062500      2.13741600     11.06738600   
   289       H         13.45031600     21.59801100     17.55184400   
   290       H         15.58051100     19.46781600     12.53565600   
   291       H          6.51815600      1.41531600     14.50698900   
   292       H         14.50698900      6.51815600      1.41531600   
   293       H         17.55184400     13.45031600     21.59801100   
   294       H         21.59801100     17.55184400     13.45031600   
   295       H          1.41531600     14.50698900      6.51815600   
   296       H          3.54551100     16.63718400     11.53434400   
   297       H          4.60218400      0.50065600     20.52448900   
   298       H         20.52448900      4.60218400      0.50065600   
   299       H          0.50065600     20.52448900      4.60218400   
   300       H         16.63718400     11.53434400      3.54551100   
   301       H         11.53434400      3.54551100     16.63718400   
   302       H          2.47198900      5.51684400     22.65468400   
   303       H         10.61968400      9.56301100     18.55315600   
   304       H         22.65468400      2.47198900      5.51684400   
   305       H         18.55315600     10.61968400      9.56301100   
   306       H          5.51684400     22.65468400      2.47198900   
   307       H          9.56301100     18.55315600     10.61968400   
   308       H         19.46781600     12.53565600     15.58051100   
   309       H         23.56934400      8.48948900      7.43281600   
   310       H          8.48948900      7.43281600     23.56934400   
   311       H         12.53565600     15.58051100     19.46781600   
   312       H          7.43281600     23.56934400      8.48948900   
   313       H         13.74878400     20.12733400     19.49910700   
   314       H         14.10983400     19.76628400     10.58839300   
   315       H          4.57089300      1.71378400     15.97766600   
   316       H         15.97766600      4.57089300      1.71378400   
   317       H         19.49910700     13.74878400     20.12733400   
   318       H         20.12733400     19.49910700     13.74878400   
   319       H          1.71378400     15.97766600      4.57089300   
   320       H          2.07483400     16.33871600     13.48160700   
   321       H          4.30371600     22.62339300     21.99516600   
   322       H         21.99516600      4.30371600     22.62339300   
   323       H         22.62339300     21.99516600      4.30371600   
   324       H         16.33871600     13.48160700      2.07483400   
   325       H         13.48160700      2.07483400     16.33871600   
   326       H          3.94266600      7.46410700     22.35621600   
   327       H         10.32121600      8.09233400     16.60589300   
   328       H         22.35621600      3.94266600      7.46410700   
   329       H         16.60589300     10.32121600      8.09233400   
   330       H          7.46410700     22.35621600      3.94266600   
   331       H          8.09233400     16.60589300     10.32121600   
   332       H         19.76628400     10.58839300     14.10983400   
   333       H          1.44660700      9.96016600      7.73128400   
   334       H          9.96016600      7.73128400      1.44660700   
   335       H         10.58839300     14.10983400     19.76628400   
   336       H          7.73128400      1.44660700      9.96016600   
   337       H         14.00392600     17.89845200     20.33674300   
   338       H         11.88095200     20.02142600      9.75075700   
   339       H          3.73325700      1.96892600     18.20654800   
   340       H         18.20654800      3.73325700      1.96892600   
   341       H         20.33674300     14.00392600     17.89845200   
   342       H         17.89845200     20.33674300     14.00392600   
   343       H          1.96892600     18.20654800      3.73325700   
   344       H         23.91595200     16.08357400     14.31924300   
   345       H          4.04857400     21.78575700      0.15404800   
   346       H          0.15404800      4.04857400     21.78575700   
   347       H         21.78575700      0.15404800      4.04857400   
   348       H         16.08357400     14.31924300     23.91595200   
   349       H         14.31924300     23.91595200     16.08357400   
   350       H          6.17154800      8.30174300     22.10107400   
   351       H         10.06607400      5.86345200     15.76825700   
   352       H         22.10107400      6.17154800      8.30174300   
   353       H         15.76825700     10.06607400      5.86345200   
   354       H          8.30174300     22.10107400      6.17154800   
   355       H          5.86345200     15.76825700     10.06607400   
   356       H         20.02142600      9.75075700     11.88095200   
   357       H          2.28424300     12.18904800      7.98642600   
   358       H         12.18904800      7.98642600      2.28424300   
   359       H          9.75075700     11.88095200     20.02142600   
   360       H          7.98642600      2.28424300     12.18904800   
   361      Tv         24.07000000      0.00000000      0.00000000   
   362      Tv          0.00000000     24.07000000      0.00000000   
   363      Tv          0.00000000      0.00000000     24.07000000   


                   THE SYSTEM IS A SOLID


                UNIT CELL TRANSLATION VECTORS

              X                Y              Z
    T1 =    24.0700000      0.0000000      0.0000000
    T2 =     0.0000000     24.0700000      0.0000000
    T3 =     0.0000000      0.0000000     24.0700000


          CARTESIAN COORDINATES 

    NO.       ATOM           X           Y           Z

     1         C         17.7661     14.4613     21.2297
     2         C          8.4438     23.7836      8.8578
     3         C          2.8403      5.7311     21.6437
     4         C         21.6437      2.8403      5.7311
     5         C         21.2297     17.7661     14.4613
     6         C         14.4613     21.2297     17.7661
     7         C          5.7311     21.6437      2.8403
     8         C         20.4788     12.3214     15.2122
     9         C          0.2864     20.8928      3.5912
    10         C          3.5912      0.2864     20.8928
    11         C         20.8928      3.5912      0.2864
    12         C         12.3214     15.2122     20.4788
    13         C         15.2122     20.4788     12.3214
    14         C          9.6087      9.1947     18.3389
    15         C          6.3039      2.4263     14.8753
    16         C         18.3389      9.6087      9.1947
    17         C         14.8753      6.3039      2.4263
    18         C          9.1947     18.3389      9.6087
    19         C          2.4263     14.8753      6.3039
    20         C         23.7836      8.8578      8.4438
    21         C          3.1772     15.6262     11.7486
    22         C         15.6262     11.7486      3.1772
    23         C          8.8578      8.4438     23.7836
    24         C         11.7486      3.1772     15.6262
    25         C         18.9407     14.6370     20.4210
    26         C          8.6195      0.8882      9.6665
    27         C          3.6490      6.9057     21.4680
    28         C         21.4680      3.6490      6.9057
    29         C         20.4210     18.9407     14.6370
    30         C         14.6370     20.4210     18.9407
    31         C          6.9057     21.4680      3.6490
    32         C         20.6545     11.1468     14.4035
    33         C         23.1818     21.7015      3.4155
    34         C          3.4155     23.1818     21.7015
    35         C         21.7015      3.4155     23.1818
    36         C         11.1468     14.4035     20.6545
    37         C         14.4035     20.6545     11.1468
    38         C          9.4330      8.3860     17.1643
    39         C          5.1293      2.6020     15.6840
    40         C         17.1643      9.4330      8.3860
    41         C         15.6840      5.1293      2.6020
    42         C          8.3860     17.1643      9.4330
    43         C          2.6020     15.6840      5.1293
    44         C          0.8882      9.6665      8.6195
    45         C          2.3685     15.4505     12.9232
    46         C         15.4505     12.9232      2.3685
    47         C          9.6665      8.6195      0.8882
    48         C         12.9232      2.3685     15.4505
    49         C         14.7934     17.3039     20.8133
    50         C         11.2864     20.8109      9.2742
    51         C          3.2567      2.7584     18.8011
    52         C         18.8011      3.2567      2.7584
    53         C         20.8133     14.7934     17.3039
    54         C         17.3039     20.8133     14.7934
    55         C          2.7584     18.8011      3.2567
    56         C         23.3214     15.2941     14.7958
    57         C          3.2591     21.3092      0.7486
    58         C          0.7486      3.2591     21.3092
    59         C         21.3092      0.7486      3.2591
    60         C         15.2941     14.7958     23.3214
    61         C         14.7958     23.3214     15.2941
    62         C          6.7661      8.7783     21.3116
    63         C          9.2766      5.2689     15.2917
    64         C         21.3116      6.7661      8.7783
    65         C         15.2917      9.2766      5.2689
    66         C          8.7783     21.3116      6.7661
    67         C          5.2689     15.2917      9.2766
    68         C         20.8109      9.2742     11.2864
    69         C          2.7608     12.7836      8.7759
    70         C         12.7836      8.7759      2.7608
    71         C          9.2742     11.2864     20.8109
    72         C          8.7759      2.7608     12.7836
    73         C         15.5588     15.3831     22.1420
    74         C          9.3656     21.5763      7.9455
    75         C          1.9280      3.5238     20.7219
    76         C         20.7219      1.9280      3.5238
    77         C         22.1420     15.5588     15.3831
    78         C         15.3831     22.1420     15.5588
    79         C          3.5238     20.7219      1.9280
    80         C         21.4006     14.5287     16.1245
    81         C          2.4937     19.9805      2.6694
    82         C          2.6694      2.4937     19.9805
    83         C         19.9805      2.6694      2.4937
    84         C         14.5287     16.1245     21.4006
    85         C         16.1245     21.4006     14.5287
    86         C          8.6869     10.1070     20.5462
    87         C          8.5112      3.3481     13.9630
    88         C         20.5462      8.6869     10.1070
    89         C         13.9630      8.5112      3.3481
    90         C         10.1070     20.5462      8.6869
    91         C          3.3481     13.9630      8.5112
    92         C         21.5763      7.9455      9.3656
    93         C          4.0895     14.7044      9.5413
    94         C         14.7044      9.5413      4.0895
    95         C          7.9455      9.3656     21.5763
    96         C          9.5413      4.0895     14.7044
    97         C         19.2175     19.9805     17.9851
    98         C         13.9630      1.1650     12.1024
    99         C          6.0849      7.1825     16.1245
   100         C         16.1245      6.0849      7.1825
   101         C         17.9851     19.2175     19.9805
   102         C         19.9805     17.9851     19.2175
   103         C          7.1825     16.1245      6.0849
   104         C          1.9280     10.8700     11.9676
   105         C         22.9050      0.0674     22.1420
   106         C         22.1420     22.9050      0.0674
   107         C          0.0674     22.1420     22.9050
   108         C         10.8700     11.9676      1.9280
   109         C         11.9676      1.9280     10.8700
   110         C          4.0895      5.9501     16.8875
   111         C          4.8525      7.9455     18.1199
   112         C         16.8875      4.0895      5.9501
   113         C         18.1199      4.8525      7.9455
   114         C          5.9501     16.8875      4.0895
   115         C          7.9455     18.1199      4.8525
   116         C          1.1650     12.1024     13.9630
   117         C         24.0026     10.1070     13.2000
   118         C         10.1070     13.2000     24.0026
   119         C         12.1024     13.9630      1.1650
   120         C         13.2000     24.0026     10.1070
   121         C         18.4569     16.9453     20.5630
   122         C         10.9278      0.4044      9.5245
   123         C          3.5070      6.4219     19.1597
   124         C         19.1597      3.5070      6.4219
   125         C         20.5630     18.4569     16.9453
   126         C         16.9453     20.5630     18.4569
   127         C          6.4219     19.1597      3.5070
   128         C         22.9628     11.6306     14.5455
   129         C         23.6656     21.5595      1.1072
   130         C          1.1072     23.6656     21.5595
   131         C         21.5595      1.1072     23.6656
   132         C         11.6306     14.5455     22.9628
   133         C         14.5455     22.9628     11.6306
   134         C          7.1247      8.5280     17.6481
   135         C          5.6131      4.9103     15.5420
   136         C         17.6481      7.1247      8.5280
   137         C         15.5420      5.6131      4.9103
   138         C          8.5280     17.6481      7.1247
   139         C          4.9103     15.5420      5.6131
   140         C          0.4044      9.5245     10.9278
   141         C          2.5105     13.1422     12.4394
   142         C         13.1422     12.4394      2.5105
   143         C          9.5245     10.9278      0.4044
   144         C         12.4394      2.5105     13.1422
   145         C         23.2251     21.9904     23.9087
   146         C         15.9729      5.1726      6.1788
   147         C          0.1613     11.1901     14.1146
   148         C         14.1146      0.1613     11.1901
   149         C         23.9087     23.2251     21.9904
   150         C         21.9904     23.9087     23.2251
   151         C         11.1901     14.1146      0.1613
   152         C          3.9379      6.8624     17.8912
   153         C         18.8974     18.2138     20.1321
   154         C         20.1321     18.8974     18.2138
   155         C         18.2138     20.1321     18.8974
   156         C          6.8624     17.8912      3.9379
   157         C         17.8912      3.9379      6.8624
   158         C          2.0796     11.8737     12.8799
   159         C          0.8449      9.9554     12.1963
   160         C         12.8799      2.0796     11.8737
   161         C         12.1963      0.8449      9.9554
   162         C         11.8737     12.8799      2.0796
   163         C          9.9554     12.1963      0.8449
   164         C          5.1726      6.1788     15.9729
   165         C          5.8562      8.0971     17.2076
   166         C          8.0971     17.2076      5.8562
   167         C          6.1788     15.9729      5.1726
   168         C         17.2076      5.8562      8.0971
   169         C         17.1667     16.7912     21.0083
   170         C         10.7737     23.1842      9.0792
   171         C          3.0617      5.1317     19.3138
   172         C         19.3138      3.0617      5.1317
   173         C         21.0083     17.1667     16.7912
   174         C         16.7912     21.0083     17.1667
   175         C          5.1317     19.3138      3.0617
   176         C         22.8087     12.9208     14.9908
   177         C          0.8858     21.1142      1.2613
   178         C          1.2613      0.8858     21.1142
   179         C         21.1142      1.2613      0.8858
   180         C         12.9208     14.9908     22.8087
   181         C         14.9908     22.8087     12.9208
   182         C          7.2788      8.9733     18.9383
   183         C          6.9033      4.7562     15.0967
   184         C         18.9383      7.2788      8.9733
   185         C         15.0967      6.9033      4.7562
   186         C          8.9733     18.9383      7.2788
   187         C          4.7562     15.0967      6.9033
   188         C         23.1842      9.0792     10.7737
   189         C          2.9558     13.2963     11.1492
   190         C         13.2963     11.1492      2.9558
   191         C          9.0792     10.7737     23.1842
   192         C         11.1492      2.9558     13.2963
   193         C         16.1630     17.8142     20.7291
   194         C         11.7967     22.1805      9.3584
   195         C          3.3409      4.1280     18.2908
   196         C         18.2908      3.3409      4.1280
   197         C         20.7291     16.1630     17.8142
   198         C         17.8142     20.7291     16.1630
   199         C          4.1280     18.2908      3.3409
   200         C         23.8317     13.9245     14.7116
   201         C          1.8895     21.3934      0.2383
   202         C          0.2383      1.8895     21.3934
   203         C         21.3934      0.2383      1.8895
   204         C         13.9245     14.7116     23.8317
   205         C         14.7116     23.8317     13.9245
   206         C          6.2558      8.6941     19.9420
   207         C          7.9070      5.7792     15.3759
   208         C         19.9420      6.2558      8.6941
   209         C         15.3759      7.9070      5.7792
   210         C          8.6941     19.9420      6.2558
   211         C          5.7792     15.3759      7.9070
   212         C         22.1805      9.3584     11.7967
   213         C          2.6766     12.2733     10.1455
   214         C         12.2733     10.1455      2.6766
   215         C          9.3584     11.7967     22.1805
   216         C         10.1455      2.6766     12.2733
   217         C         19.2993     15.8910     20.0335
   218         C          9.8735      1.2468     10.0540
   219         C          4.0365      7.2643     20.2140
   220         C         20.2140      4.0365      7.2643
   221         C         20.0335     19.2993     15.8910
   222         C         15.8910     20.0335     19.2993
   223         C          7.2643     20.2140      4.0365
   224         C         21.9085     10.7882     14.0160
   225         C         22.8232     22.0890      2.1615
   226         C          2.1615     22.8232     22.0890
   227         C         22.0890      2.1615     22.8232
   228         C         10.7882     14.0160     21.9085
   229         C         14.0160     21.9085     10.7882
   230         C          8.1790      7.9985     16.8057
   231         C          4.7707      3.8560     16.0715
   232         C         16.8057      8.1790      7.9985
   233         C         16.0715      4.7707      3.8560
   234         C          7.9985     16.8057      8.1790
   235         C          3.8560     16.0715      4.7707
   236         C          1.2468     10.0540      9.8735
   237         C          1.9810     14.1965     13.2818
   238         C         14.1965     13.2818      1.9810
   239         C         10.0540      9.8735      1.2468
   240         C         13.2818      1.9810     14.1965
   241         C         16.8803     15.4770     21.4873
   242         C          9.4595     22.8978      8.6002
   243         C          2.5827      4.8453     20.6280
   244         C         20.6280      2.5827      4.8453
   245         C         21.4873     16.8803     15.4770
   246         C         15.4770     21.4873     16.8803
   247         C          4.8453     20.6280      2.5827
   248         C         21.4945     13.2072     15.4698
   249         C          1.1722     20.6352      2.5755
   250         C          2.5755      1.1722     20.6352
   251         C         20.6352      2.5755      1.1722
   252         C         13.2072     15.4698     21.4945
   253         C         15.4698     21.4945     13.2072
   254         C          8.5930      9.4523     19.2247
   255         C          7.1897      3.4420     14.6177
   256         C         19.2247      8.5930      9.4523
   257         C         14.6177      7.1897      3.4420
   258         C          9.4523     19.2247      8.5930
   259         C          3.4420     14.6177      7.1897
   260         C         22.8978      8.6002      9.4595
   261         C          3.4348     14.6105     10.8628
   262         C         14.6105     10.8628      3.4348
   263         C          8.6002      9.4595     22.8978
   264         C         10.8628      3.4348     14.6105
   265         B         16.5481     19.0201     20.1899
   266         B         13.0026     22.5656      9.8976
   267         B          3.8801      4.5131     17.0849
   268         B         17.0849      3.8801      4.5131
   269         B         20.1899     16.5481     19.0201
   270         B         19.0201     20.1899     16.5481
   271         B          4.5131     17.0849      3.8801
   272         B          0.9676     13.5394     14.1724
   273         B          1.5044     21.9326     23.1024
   274         B         23.1024      1.5044     21.9326
   275         B         21.9326     23.1024      1.5044
   276         B         13.5394     14.1724      0.9676
   277         B         14.1724      0.9676     13.5394
   278         B          5.0499      8.1549     19.5569
   279         B          7.5219      6.9851     15.9151
   280         B         19.5569      5.0499      8.1549
   281         B         15.9151      7.5219      6.9851
   282         B          8.1549     19.5569      5.0499
   283         B          6.9851     15.9151      7.5219
   284         B         22.5656      9.8976     13.0026
   285         B          2.1374     11.0674     10.5306
   286         B         11.0674     10.5306      2.1374
   287         B          9.8976     13.0026     22.5656
   288         B         10.5306      2.1374     11.0674
   289         H         13.4503     21.5980     17.5518
   290         H         15.5805     19.4678     12.5357
   291         H          6.5182      1.4153     14.5070
   292         H         14.5070      6.5182      1.4153
   293         H         17.5518     13.4503     21.5980
   294         H         21.5980     17.5518     13.4503
   295         H          1.4153     14.5070      6.5182
   296         H          3.5455     16.6372     11.5343
   297         H          4.6022      0.5007     20.5245
   298         H         20.5245      4.6022      0.5007
   299         H          0.5007     20.5245      4.6022
   300         H         16.6372     11.5343      3.5455
   301         H         11.5343      3.5455     16.6372
   302         H          2.4720      5.5168     22.6547
   303         H         10.6197      9.5630     18.5532
   304         H         22.6547      2.4720      5.5168
   305         H         18.5532     10.6197      9.5630
   306         H          5.5168     22.6547      2.4720
   307         H          9.5630     18.5532     10.6197
   308         H         19.4678     12.5357     15.5805
   309         H         23.5693      8.4895      7.4328
   310         H          8.4895      7.4328     23.5693
   311         H         12.5357     15.5805     19.4678
   312         H          7.4328     23.5693      8.4895
   313         H         13.7488     20.1273     19.4991
   314         H         14.1098     19.7663     10.5884
   315         H          4.5709      1.7138     15.9777
   316         H         15.9777      4.5709      1.7138
   317         H         19.4991     13.7488     20.1273
   318         H         20.1273     19.4991     13.7488
   319         H          1.7138     15.9777      4.5709
   320         H          2.0748     16.3387     13.4816
   321         H          4.3037     22.6234     21.9952
   322         H         21.9952      4.3037     22.6234
   323         H         22.6234     21.9952      4.3037
   324         H         16.3387     13.4816      2.0748
   325         H         13.4816      2.0748     16.3387
   326         H          3.9427      7.4641     22.3562
   327         H         10.3212      8.0923     16.6059
   328         H         22.3562      3.9427      7.4641
   329         H         16.6059     10.3212      8.0923
   330         H          7.4641     22.3562      3.9427
   331         H          8.0923     16.6059     10.3212
   332         H         19.7663     10.5884     14.1098
   333         H          1.4466      9.9602      7.7313
   334         H          9.9602      7.7313      1.4466
   335         H         10.5884     14.1098     19.7663
   336         H          7.7313      1.4466      9.9602
   337         H         14.0039     17.8985     20.3367
   338         H         11.8810     20.0214      9.7508
   339         H          3.7333      1.9689     18.2065
   340         H         18.2065      3.7333      1.9689
   341         H         20.3367     14.0039     17.8985
   342         H         17.8985     20.3367     14.0039
   343         H          1.9689     18.2065      3.7333
   344         H         23.9160     16.0836     14.3192
   345         H          4.0486     21.7858      0.1540
   346         H          0.1540      4.0486     21.7858
   347         H         21.7858      0.1540      4.0486
   348         H         16.0836     14.3192     23.9160
   349         H         14.3192     23.9160     16.0836
   350         H          6.1715      8.3017     22.1011
   351         H         10.0661      5.8635     15.7683
   352         H         22.1011      6.1715      8.3017
   353         H         15.7683     10.0661      5.8635
   354         H          8.3017     22.1011      6.1715
   355         H          5.8635     15.7683     10.0661
   356         H         20.0214      9.7508     11.8810
   357         H          2.2842     12.1890      7.9864
   358         H         12.1890      7.9864      2.2842
   359         H          9.7508     11.8810     20.0214
   360         H          7.9864      2.2842     12.1890

 General Reference for PM7:
 "Optimization of Parameters for Semiempirical Methods VI: More Modifications to the 
 NDDO Approximations and Re-optimization of Parameters", J. J. P. Stewart, J. Mol. Mod., 1:32, 19 (2013)
 https://link.springer.com/article/10.1007/s00894-012-1667-x

           Empirical Formula: C264 H72 B24  =   360 atoms



      RHF CALCULATION, NO. OF DOUBLY OCCUPIED LEVELS = 600


 -------------------------------------------------------------------------------
 PM7 CHARGE=0 NOOPT




     NO PARAMETERS MARKED FOR OPTIMIZATION, SO 1SCF WAS USED  
     SCF FIELD WAS ACHIEVED                                   


                              PM7 CALCULATION
                                                       MOPAC v22.1.0 Linux
                                                       Wed Jan 31 16:28:07 2024




          FINAL HEAT OF FORMATION =       2662.34639 KCAL/MOL =   11139.25730 KJ/MOL
          H.o.F. per unit cell    =        110.93110 KCAL, for 24 unit cells, unit cell = C11 H3 B1



          IONIZATION POTENTIAL    =          8.294322 EV
          HOMO LUMO ENERGIES (EV) =         -8.294 -4.129
          NO. OF FILLED LEVELS    =        600
          MOLECULAR WEIGHT        =       3502.9128

                   THE SYSTEM IS A SOLID


                UNIT CELL TRANSLATION VECTORS

              X                Y              Z
    T1 =    24.0700000      0.0000000      0.0000000
    T2 =     0.0000000     24.0700000      0.0000000
    T3 =     0.0000000      0.0000000     24.0700000

          VOLUME OF UNIT CELL     =      13945.313 CUBIC ANGSTROMS

          DENSITY                 =          0.417 GRAMS/CC
                              A   =         24.070 ANGSTROMS
                              B   =         24.070 ANGSTROMS
                              C   =         24.070 ANGSTROMS
                            ALPHA =         90.000 DEGREES
                            BETA  =         90.000 DEGREES
                            GAMMA =         90.000 DEGREES



          SCF CALCULATIONS        =          1

          WALL-CLOCK TIME         =     26.766 SECONDS
          COMPUTATION TIME        =     26.753 SECONDS




   ATOM   CHEMICAL          X               Y               Z
  NUMBER   SYMBOL      (ANGSTROMS)     (ANGSTROMS)     (ANGSTROMS)

     1       C         17.76606700     14.46125600     21.22974000   
     2       C          8.44375600     23.78356700      8.85776000   
     3       C          2.84026000      5.73106700     21.64374400   
     4       C         21.64374400      2.84026000      5.73106700   
     5       C         21.22974000     17.76606700     14.46125600   
     6       C         14.46125600     21.22974000     17.76606700   
     7       C          5.73106700     21.64374400      2.84026000   
     8       C         20.47875600     12.32143300     15.21224000   
     9       C          0.28643300     20.89276000      3.59124400   
    10       C          3.59124400      0.28643300     20.89276000   
    11       C         20.89276000      3.59124400      0.28643300   
    12       C         12.32143300     15.21224000     20.47875600   
    13       C         15.21224000     20.47875600     12.32143300   
    14       C          9.60874400      9.19474000     18.33893300   
    15       C          6.30393300      2.42625600     14.87526000   
    16       C         18.33893300      9.60874400      9.19474000   
    17       C         14.87526000      6.30393300      2.42625600   
    18       C          9.19474000     18.33893300      9.60874400   
    19       C          2.42625600     14.87526000      6.30393300   
    20       C         23.78356700      8.85776000      8.44375600   
    21       C          3.17724000     15.62624400     11.74856700   
    22       C         15.62624400     11.74856700      3.17724000   
    23       C          8.85776000      8.44375600     23.78356700   
    24       C         11.74856700      3.17724000     15.62624400   
    25       C         18.94068300     14.63696700     20.42098800   
    26       C          8.61946700      0.88818300      9.66651200   
    27       C          3.64901200      6.90568300     21.46803300   
    28       C         21.46803300      3.64901200      6.90568300   
    29       C         20.42098800     18.94068300     14.63696700   
    30       C         14.63696700     20.42098800     18.94068300   
    31       C          6.90568300     21.46803300      3.64901200   
    32       C         20.65446700     11.14681700     14.40348800   
    33       C         23.18181700     21.70151200      3.41553300   
    34       C          3.41553300     23.18181700     21.70151200   
    35       C         21.70151200      3.41553300     23.18181700   
    36       C         11.14681700     14.40348800     20.65446700   
    37       C         14.40348800     20.65446700     11.14681700   
    38       C          9.43303300      8.38598800     17.16431700   
    39       C          5.12931700      2.60196700     15.68401200   
    40       C         17.16431700      9.43303300      8.38598800   
    41       C         15.68401200      5.12931700      2.60196700   
    42       C          8.38598800     17.16431700      9.43303300   
    43       C          2.60196700     15.68401200      5.12931700   
    44       C          0.88818300      9.66651200      8.61946700   
    45       C          2.36848800     15.45053300     12.92318300   
    46       C         15.45053300     12.92318300      2.36848800   
    47       C          9.66651200      8.61946700      0.88818300   
    48       C         12.92318300      2.36848800     15.45053300   
    49       C         14.79342200     17.30392300     20.81332900   
    50       C         11.28642300     20.81092200      9.27417100   
    51       C          3.25667100      2.75842200     18.80107700   
    52       C         18.80107700      3.25667100      2.75842200   
    53       C         20.81332900     14.79342200     17.30392300   
    54       C         17.30392300     20.81332900     14.79342200   
    55       C          2.75842200     18.80107700      3.25667100   
    56       C         23.32142300     15.29407800     14.79582900   
    57       C          3.25907800     21.30917100      0.74857700   
    58       C          0.74857700      3.25907800     21.30917100   
    59       C         21.30917100      0.74857700      3.25907800   
    60       C         15.29407800     14.79582900     23.32142300   
    61       C         14.79582900     23.32142300     15.29407800   
    62       C          6.76607700      8.77832900     21.31157800   
    63       C          9.27657800      5.26892300     15.29167100   
    64       C         21.31157800      6.76607700      8.77832900   
    65       C         15.29167100      9.27657800      5.26892300   
    66       C          8.77832900     21.31157800      6.76607700   
    67       C          5.26892300     15.29167100      9.27657800   
    68       C         20.81092200      9.27417100     11.28642300   
    69       C          2.76082900     12.78357700      8.77592200   
    70       C         12.78357700      8.77592200      2.76082900   
    71       C          9.27417100     11.28642300     20.81092200   
    72       C          8.77592200      2.76082900     12.78357700   
    73       C         15.55884800     15.38313700     22.14199300   
    74       C          9.36563700     21.57634800      7.94550700   
    75       C          1.92800700      3.52384800     20.72186300   
    76       C         20.72186300      1.92800700      3.52384800   
    77       C         22.14199300     15.55884800     15.38313700   
    78       C         15.38313700     22.14199300     15.55884800   
    79       C          3.52384800     20.72186300      1.92800700   
    80       C         21.40063700     14.52865200     16.12449300   
    81       C          2.49365200     19.98050700      2.66936300   
    82       C          2.66936300      2.49365200     19.98050700   
    83       C         19.98050700      2.66936300      2.49365200   
    84       C         14.52865200     16.12449300     21.40063700   
    85       C         16.12449300     21.40063700     14.52865200   
    86       C          8.68686300     10.10699300     20.54615200   
    87       C          8.51115200      3.34813700     13.96300700   
    88       C         20.54615200      8.68686300     10.10699300   
    89       C         13.96300700      8.51115200      3.34813700   
    90       C         10.10699300     20.54615200      8.68686300   
    91       C          3.34813700     13.96300700      8.51115200   
    92       C         21.57634800      7.94550700      9.36563700   
    93       C          4.08949300     14.70436300      9.54134800   
    94       C         14.70436300      9.54134800      4.08949300   
    95       C          7.94550700      9.36563700     21.57634800   
    96       C          9.54134800      4.08949300     14.70436300   
    97       C         19.21748800     19.98050700     17.98510400   
    98       C         13.96300700      1.16498800     12.10239600   
    99       C          6.08489600      7.18248800     16.12449300   
   100       C         16.12449300      6.08489600      7.18248800   
   101       C         17.98510400     19.21748800     19.98050700   
   102       C         19.98050700     17.98510400     19.21748800   
   103       C          7.18248800     16.12449300      6.08489600   
   104       C          1.92800700     10.87001200     11.96760400   
   105       C         22.90501200      0.06739600     22.14199300   
   106       C         22.14199300     22.90501200      0.06739600   
   107       C          0.06739600     22.14199300     22.90501200   
   108       C         10.87001200     11.96760400      1.92800700   
   109       C         11.96760400      1.92800700     10.87001200   
   110       C          4.08949300      5.95010400     16.88751200   
   111       C          4.85251200      7.94550700     18.11989600   
   112       C         16.88751200      4.08949300      5.95010400   
   113       C         18.11989600      4.85251200      7.94550700   
   114       C          5.95010400     16.88751200      4.08949300   
   115       C          7.94550700     18.11989600      4.85251200   
   116       C          1.16498800     12.10239600     13.96300700   
   117       C         24.00260400     10.10699300     13.19998800   
   118       C         10.10699300     13.19998800     24.00260400   
   119       C         12.10239600     13.96300700      1.16498800   
   120       C         13.19998800     24.00260400     10.10699300   
   121       C         18.45687600     16.94528000     20.56300100   
   122       C         10.92778000      0.40437600      9.52449900   
   123       C          3.50699900      6.42187600     19.15972000   
   124       C         19.15972000      3.50699900      6.42187600   
   125       C         20.56300100     18.45687600     16.94528000   
   126       C         16.94528000     20.56300100     18.45687600   
   127       C          6.42187600     19.15972000      3.50699900   
   128       C         22.96278000     11.63062400     14.54550100   
   129       C         23.66562400     21.55949900      1.10722000   
   130       C          1.10722000     23.66562400     21.55949900   
   131       C         21.55949900      1.10722000     23.66562400   
   132       C         11.63062400     14.54550100     22.96278000   
   133       C         14.54550100     22.96278000     11.63062400   
   134       C          7.12472000      8.52800100     17.64812400   
   135       C          5.61312400      4.91028000     15.54199900   
   136       C         17.64812400      7.12472000      8.52800100   
   137       C         15.54199900      5.61312400      4.91028000   
   138       C          8.52800100     17.64812400      7.12472000   
   139       C          4.91028000     15.54199900      5.61312400   
   140       C          0.40437600      9.52449900     10.92778000   
   141       C          2.51050100     13.14222000     12.43937600   
   142       C         13.14222000     12.43937600      2.51050100   
   143       C          9.52449900     10.92778000      0.40437600   
   144       C         12.43937600      2.51050100     13.14222000   
   145       C         23.22514300     21.99035200     23.90873100   
   146       C         15.97285200      5.17264300      6.17876900   
   147       C          0.16126900     11.19014300     14.11464800   
   148       C         14.11464800      0.16126900     11.19014300   
   149       C         23.90873100     23.22514300     21.99035200   
   150       C         21.99035200     23.90873100     23.22514300   
   151       C         11.19014300     14.11464800      0.16126900   
   152       C          3.93785200      6.86235700     17.89123100   
   153       C         18.89735700     18.21376900     20.13214800   
   154       C         20.13214800     18.89735700     18.21376900   
   155       C         18.21376900     20.13214800     18.89735700   
   156       C          6.86235700     17.89123100      3.93785200   
   157       C         17.89123100      3.93785200      6.86235700   
   158       C          2.07964800     11.87373100     12.87985700   
   159       C          0.84485700      9.95535200     12.19626900   
   160       C         12.87985700      2.07964800     11.87373100   
   161       C         12.19626900      0.84485700      9.95535200   
   162       C         11.87373100     12.87985700      2.07964800   
   163       C          9.95535200     12.19626900      0.84485700   
   164       C          5.17264300      6.17876900     15.97285200   
   165       C          5.85623100      8.09714800     17.20764300   
   166       C          8.09714800     17.20764300      5.85623100   
   167       C          6.17876900     15.97285200      5.17264300   
   168       C         17.20764300      5.85623100      8.09714800   
   169       C         17.16672400     16.79123200     21.00829600   
   170       C         10.77373200     23.18422400      9.07920400   
   171       C          3.06170400      5.13172400     19.31376800   
   172       C         19.31376800      3.06170400      5.13172400   
   173       C         21.00829600     17.16672400     16.79123200   
   174       C         16.79123200     21.00829600     17.16672400   
   175       C          5.13172400     19.31376800      3.06170400   
   176       C         22.80873200     12.92077600     14.99079600   
   177       C          0.88577600     21.11420400      1.26126800   
   178       C          1.26126800      0.88577600     21.11420400   
   179       C         21.11420400      1.26126800      0.88577600   
   180       C         12.92077600     14.99079600     22.80873200   
   181       C         14.99079600     22.80873200     12.92077600   
   182       C          7.27876800      8.97329600     18.93827600   
   183       C          6.90327600      4.75623200     15.09670400   
   184       C         18.93827600      7.27876800      8.97329600   
   185       C         15.09670400      6.90327600      4.75623200   
   186       C          8.97329600     18.93827600      7.27876800   
   187       C          4.75623200     15.09670400      6.90327600   
   188       C         23.18422400      9.07920400     10.77373200   
   189       C          2.95579600     13.29626800     11.14922400   
   190       C         13.29626800     11.14922400      2.95579600   
   191       C          9.07920400     10.77373200     23.18422400   
   192       C         11.14922400      2.95579600     13.29626800   
   193       C         16.16300500     17.81420700     20.72908400   
   194       C         11.79670700     22.18050500      9.35841600   
   195       C          3.34091600      4.12800500     18.29079300   
   196       C         18.29079300      3.34091600      4.12800500   
   197       C         20.72908400     16.16300500     17.81420700   
   198       C         17.81420700     20.72908400     16.16300500   
   199       C          4.12800500     18.29079300      3.34091600   
   200       C         23.83170700     13.92449500     14.71158400   
   201       C          1.88949500     21.39341600      0.23829300   
   202       C          0.23829300      1.88949500     21.39341600   
   203       C         21.39341600      0.23829300      1.88949500   
   204       C         13.92449500     14.71158400     23.83170700   
   205       C         14.71158400     23.83170700     13.92449500   
   206       C          6.25579300      8.69408400     19.94199500   
   207       C          7.90699500      5.77920700     15.37591600   
   208       C         19.94199500      6.25579300      8.69408400   
   209       C         15.37591600      7.90699500      5.77920700   
   210       C          8.69408400     19.94199500      6.25579300   
   211       C          5.77920700     15.37591600      7.90699500   
   212       C         22.18050500      9.35841600     11.79670700   
   213       C          2.67658400     12.27329300     10.14550500   
   214       C         12.27329300     10.14550500      2.67658400   
   215       C          9.35841600     11.79670700     22.18050500   
   216       C         10.14550500      2.67658400     12.27329300   
   217       C         19.29932600     15.89101400     20.03346100   
   218       C          9.87351400      1.24682600     10.05403900   
   219       C          4.03653900      7.26432600     20.21398600   
   220       C         20.21398600      4.03653900      7.26432600   
   221       C         20.03346100     19.29932600     15.89101400   
   222       C         15.89101400     20.03346100     19.29932600   
   223       C          7.26432600     20.21398600      4.03653900   
   224       C         21.90851400     10.78817400     14.01596100   
   225       C         22.82317400     22.08903900      2.16148600   
   226       C          2.16148600     22.82317400     22.08903900   
   227       C         22.08903900      2.16148600     22.82317400   
   228       C         10.78817400     14.01596100     21.90851400   
   229       C         14.01596100     21.90851400     10.78817400   
   230       C          8.17898600      7.99846100     16.80567400   
   231       C          4.77067400      3.85601400     16.07153900   
   232       C         16.80567400      8.17898600      7.99846100   
   233       C         16.07153900      4.77067400      3.85601400   
   234       C          7.99846100     16.80567400      8.17898600   
   235       C          3.85601400     16.07153900      4.77067400   
   236       C          1.24682600     10.05403900      9.87351400   
   237       C          1.98096100     14.19648600     13.28182600   
   238       C         14.19648600     13.28182600      1.98096100   
   239       C         10.05403900      9.87351400      1.24682600   
   240       C         13.28182600      1.98096100     14.19648600   
   241       C         16.88029100     15.47701000     21.48728900   
   242       C          9.45951000     22.89779100      8.60021100   
   243       C          2.58271100      4.84529100     20.62799000   
   244       C         20.62799000      2.58271100      4.84529100   
   245       C         21.48728900     16.88029100     15.47701000   
   246       C         15.47701000     21.48728900     16.88029100   
   247       C          4.84529100     20.62799000      2.58271100   
   248       C         21.49451000     13.20720900     15.46978900   
   249       C          1.17220900     20.63521100      2.57549000   
   250       C          2.57549000      1.17220900     20.63521100   
   251       C         20.63521100      2.57549000      1.17220900   
   252       C         13.20720900     15.46978900     21.49451000   
   253       C         15.46978900     21.49451000     13.20720900   
   254       C          8.59299000      9.45228900     19.22470900   
   255       C          7.18970900      3.44201000     14.61771100   
   256       C         19.22470900      8.59299000      9.45228900   
   257       C         14.61771100      7.18970900      3.44201000   
   258       C          9.45228900     19.22470900      8.59299000   
   259       C          3.44201000     14.61771100      7.18970900   
   260       C         22.89779100      8.60021100      9.45951000   
   261       C          3.43478900     14.61049000     10.86279100   
   262       C         14.61049000     10.86279100      3.43478900   
   263       C          8.60021100      9.45951000     22.89779100   
   264       C         10.86279100      3.43478900     14.61049000   
   265       B         16.54812500     19.02011400     20.18991600   
   266       B         13.00261400     22.56562500      9.89758400   
   267       B          3.88008400      4.51312500     17.08488600   
   268       B         17.08488600      3.88008400      4.51312500   
   269       B         20.18991600     16.54812500     19.02011400   
   270       B         19.02011400     20.18991600     16.54812500   
   271       B          4.51312500     17.08488600      3.88008400   
   272       B          0.96761400     13.53937500     14.17241600   
   273       B          1.50437500     21.93258400     23.10238600   
   274       B         23.10238600      1.50437500     21.93258400   
   275       B         21.93258400     23.10238600      1.50437500   
   276       B         13.53937500     14.17241600      0.96761400   
   277       B         14.17241600      0.96761400     13.53937500   
   278       B          5.04988600      8.15491600     19.55687500   
   279       B          7.52187500      6.98511400     15.91508400   
   280       B         19.55687500      5.04988600      8.15491600   
   281       B         15.91508400      7.52187500      6.98511400   
   282       B          8.15491600     19.55687500      5.04988600   
   283       B          6.98511400     15.91508400      7.52187500   
   284       B         22.56562500      9.89758400     13.00261400   
   285       B          2.13741600     11.06738600     10.53062500   
   286       B         11.06738600     10.53062500      2.13741600   
   287       B          9.89758400     13.00261400     22.56562500   
   288       B         10.53062500      2.13741600     11.06738600   
   289       H         13.45031600     21.59801100     17.55184400   
   290       H         15.58051100     19.46781600     12.53565600   
   291       H          6.51815600      1.41531600     14.50698900   
   292       H         14.50698900      6.51815600      1.41531600   
   293       H         17.55184400     13.45031600     21.59801100   
   294       H         21.59801100     17.55184400     13.45031600   
   295       H          1.41531600     14.50698900      6.51815600   
   296       H          3.54551100     16.63718400     11.53434400   
   297       H          4.60218400      0.50065600     20.52448900   
   298       H         20.52448900      4.60218400      0.50065600   
   299       H          0.50065600     20.52448900      4.60218400   
   300       H         16.63718400     11.53434400      3.54551100   
   301       H         11.53434400      3.54551100     16.63718400   
   302       H          2.47198900      5.51684400     22.65468400   
   303       H         10.61968400      9.56301100     18.55315600   
   304       H         22.65468400      2.47198900      5.51684400   
   305       H         18.55315600     10.61968400      9.56301100   
   306       H          5.51684400     22.65468400      2.47198900   
   307       H          9.56301100     18.55315600     10.61968400   
   308       H         19.46781600     12.53565600     15.58051100   
   309       H         23.56934400      8.48948900      7.43281600   
   310       H          8.48948900      7.43281600     23.56934400   
   311       H         12.53565600     15.58051100     19.46781600   
   312       H          7.43281600     23.56934400      8.48948900   
   313       H         13.74878400     20.12733400     19.49910700   
   314       H         14.10983400     19.76628400     10.58839300   
   315       H          4.57089300      1.71378400     15.97766600   
   316       H         15.97766600      4.57089300      1.71378400   
   317       H         19.49910700     13.74878400     20.12733400   
   318       H         20.12733400     19.49910700     13.74878400   
   319       H          1.71378400     15.97766600      4.57089300   
   320       H          2.07483400     16.33871600     13.48160700   
   321       H          4.30371600     22.62339300     21.99516600   
   322       H         21.99516600      4.30371600     22.62339300   
   323       H         22.62339300     21.99516600      4.30371600   
   324       H         16.33871600     13.48160700      2.07483400   
   325       H         13.48160700      2.07483400     16.33871600   
   326       H          3.94266600      7.46410700     22.35621600   
   327       H         10.32121600      8.09233400     16.60589300   
   328       H         22.35621600      3.94266600      7.46410700   
   329       H         16.60589300     10.32121600      8.09233400   
   330       H          7.46410700     22.35621600      3.94266600   
   331       H          8.09233400     16.60589300     10.32121600   
   332       H         19.76628400     10.58839300     14.10983400   
   333       H          1.44660700      9.96016600      7.73128400   
   334       H          9.96016600      7.73128400      1.44660700   
   335       H         10.58839300     14.10983400     19.76628400   
   336       H          7.73128400      1.44660700      9.96016600   
   337       H         14.00392600     17.89845200     20.33674300   
   338       H         11.88095200     20.02142600      9.75075700   
   339       H          3.73325700      1.96892600     18.20654800   
   340       H         18.20654800      3.73325700      1.96892600   
   341       H         20.33674300     14.00392600     17.89845200   
   342       H         17.89845200     20.33674300     14.00392600   
   343       H          1.96892600     18.20654800      3.73325700   
   344       H         23.91595200     16.08357400     14.31924300   
   345       H          4.04857400     21.78575700      0.15404800   
   346       H          0.15404800      4.04857400     21.78575700   
   347       H         21.78575700      0.15404800      4.04857400   
   348       H         16.08357400     14.31924300     23.91595200   
   349       H         14.31924300     23.91595200     16.08357400   
   350       H          6.17154800      8.30174300     22.10107400   
   351       H         10.06607400      5.86345200     15.76825700   
   352       H         22.10107400      6.17154800      8.30174300   
   353       H         15.76825700     10.06607400      5.86345200   
   354       H          8.30174300     22.10107400      6.17154800   
   355       H          5.86345200     15.76825700     10.06607400   
   356       H         20.02142600      9.75075700     11.88095200   
   357       H          2.28424300     12.18904800      7.98642600   
   358       H         12.18904800      7.98642600      2.28424300   
   359       H          9.75075700     11.88095200     20.02142600   
   360       H          7.98642600      2.28424300     12.18904800   
   361      Tv         24.07000000      0.00000000      0.00000000   
   362      Tv          0.00000000     24.07000000      0.00000000   
   363      Tv          0.00000000      0.00000000     24.07000000   

                             CARTESIAN COORDINATES

   1    C       17.766067000    14.461256000    21.229740000
   2    C        8.443756000    23.783567000     8.857760000
   3    C        2.840260000     5.731067000    21.643744000
   4    C       21.643744000     2.840260000     5.731067000
   5    C       21.229740000    17.766067000    14.461256000
   6    C       14.461256000    21.229740000    17.766067000
   7    C        5.731067000    21.643744000     2.840260000
   8    C       20.478756000    12.321433000    15.212240000
   9    C        0.286433000    20.892760000     3.591244000
  10    C        3.591244000     0.286433000    20.892760000
  11    C       20.892760000     3.591244000     0.286433000
  12    C       12.321433000    15.212240000    20.478756000
  13    C       15.212240000    20.478756000    12.321433000
  14    C        9.608744000     9.194740000    18.338933000
  15    C        6.303933000     2.426256000    14.875260000
  16    C       18.338933000     9.608744000     9.194740000
  17    C       14.875260000     6.303933000     2.426256000
  18    C        9.194740000    18.338933000     9.608744000
  19    C        2.426256000    14.875260000     6.303933000
  20    C       23.783567000     8.857760000     8.443756000
  21    C        3.177240000    15.626244000    11.748567000
  22    C       15.626244000    11.748567000     3.177240000
  23    C        8.857760000     8.443756000    23.783567000
  24    C       11.748567000     3.177240000    15.626244000
  25    C       18.940683000    14.636967000    20.420988000
  26    C        8.619467000     0.888183000     9.666512000
  27    C        3.649012000     6.905683000    21.468033000
  28    C       21.468033000     3.649012000     6.905683000
  29    C       20.420988000    18.940683000    14.636967000
  30    C       14.636967000    20.420988000    18.940683000
  31    C        6.905683000    21.468033000     3.649012000
  32    C       20.654467000    11.146817000    14.403488000
  33    C       23.181817000    21.701512000     3.415533000
  34    C        3.415533000    23.181817000    21.701512000
  35    C       21.701512000     3.415533000    23.181817000
  36    C       11.146817000    14.403488000    20.654467000
  37    C       14.403488000    20.654467000    11.146817000
  38    C        9.433033000     8.385988000    17.164317000
  39    C        5.129317000     2.601967000    15.684012000
  40    C       17.164317000     9.433033000     8.385988000
  41    C       15.684012000     5.129317000     2.601967000
  42    C        8.385988000    17.164317000     9.433033000
  43    C        2.601967000    15.684012000     5.129317000
  44    C        0.888183000     9.666512000     8.619467000
  45    C        2.368488000    15.450533000    12.923183000
  46    C       15.450533000    12.923183000     2.368488000
  47    C        9.666512000     8.619467000     0.888183000
  48    C       12.923183000     2.368488000    15.450533000
  49    C       14.793422000    17.303923000    20.813329000
  50    C       11.286423000    20.810922000     9.274171000
  51    C        3.256671000     2.758422000    18.801077000
  52    C       18.801077000     3.256671000     2.758422000
  53    C       20.813329000    14.793422000    17.303923000
  54    C       17.303923000    20.813329000    14.793422000
  55    C        2.758422000    18.801077000     3.256671000
  56    C       23.321423000    15.294078000    14.795829000
  57    C        3.259078000    21.309171000     0.748577000
  58    C        0.748577000     3.259078000    21.309171000
  59    C       21.309171000     0.748577000     3.259078000
  60    C       15.294078000    14.795829000    23.321423000
  61    C       14.795829000    23.321423000    15.294078000
  62    C        6.766077000     8.778329000    21.311578000
  63    C        9.276578000     5.268923000    15.291671000
  64    C       21.311578000     6.766077000     8.778329000
  65    C       15.291671000     9.276578000     5.268923000
  66    C        8.778329000    21.311578000     6.766077000
  67    C        5.268923000    15.291671000     9.276578000
  68    C       20.810922000     9.274171000    11.286423000
  69    C        2.760829000    12.783577000     8.775922000
  70    C       12.783577000     8.775922000     2.760829000
  71    C        9.274171000    11.286423000    20.810922000
  72    C        8.775922000     2.760829000    12.783577000
  73    C       15.558848000    15.383137000    22.141993000
  74    C        9.365637000    21.576348000     7.945507000
[...]
  293          H           0.155723        0.8443     0.84428
  294          H           0.155723        0.8443     0.84428
  295          H           0.155723        0.8443     0.84428
  296          H           0.155723        0.8443     0.84428
  297          H           0.155723        0.8443     0.84428
  298          H           0.155723        0.8443     0.84428
  299          H           0.155723        0.8443     0.84428
  300          H           0.155723        0.8443     0.84428
  301          H           0.155723        0.8443     0.84428
  302          H           0.155723        0.8443     0.84428
  303          H           0.155723        0.8443     0.84428
  304          H           0.155723        0.8443     0.84428
  305          H           0.155723        0.8443     0.84428
  306          H           0.155723        0.8443     0.84428
  307          H           0.155723        0.8443     0.84428
  308          H           0.155723        0.8443     0.84428
  309          H           0.155723        0.8443     0.84428
  310          H           0.155723        0.8443     0.84428
  311          H           0.155723        0.8443     0.84428
  312          H           0.155723        0.8443     0.84428
  313          H           0.156430        0.8436     0.84357
  314          H           0.156430        0.8436     0.84357
  315          H           0.156430        0.8436     0.84357
  316          H           0.156430        0.8436     0.84357
  317          H           0.156430        0.8436     0.84357
  318          H           0.156430        0.8436     0.84357
  319          H           0.156430        0.8436     0.84357
  320          H           0.156430        0.8436     0.84357
  321          H           0.156430        0.8436     0.84357
  322          H           0.156430        0.8436     0.84357
  323          H           0.156430        0.8436     0.84357
  324          H           0.156430        0.8436     0.84357
  325          H           0.156430        0.8436     0.84357
  326          H           0.156430        0.8436     0.84357
  327          H           0.156430        0.8436     0.84357
  328          H           0.156430        0.8436     0.84357
  329          H           0.156430        0.8436     0.84357
  330          H           0.156430        0.8436     0.84357
  331          H           0.156430        0.8436     0.84357
  332          H           0.156430        0.8436     0.84357
  333          H           0.156430        0.8436     0.84357
  334          H           0.156430        0.8436     0.84357
  335          H           0.156430        0.8436     0.84357
  336          H           0.156430        0.8436     0.84357
  337          H           0.173003        0.8270     0.82700
  338          H           0.173003        0.8270     0.82700
  339          H           0.173003        0.8270     0.82700
  340          H           0.173003        0.8270     0.82700
  341          H           0.173003        0.8270     0.82700
  342          H           0.173003        0.8270     0.82700
  343          H           0.173003        0.8270     0.82700
  344          H           0.173003        0.8270     0.82700
  345          H           0.173003        0.8270     0.82700
  346          H           0.173003        0.8270     0.82700
  347          H           0.173003        0.8270     0.82700
  348          H           0.173003        0.8270     0.82700
  349          H           0.173003        0.8270     0.82700
  350          H           0.173003        0.8270     0.82700
  351          H           0.173003        0.8270     0.82700
  352          H           0.173003        0.8270     0.82700
  353          H           0.173003        0.8270     0.82700
  354          H           0.173003        0.8270     0.82700
  355          H           0.173003        0.8270     0.82700
  356          H           0.173003        0.8270     0.82700
  357          H           0.173003        0.8270     0.82700
  358          H           0.173003        0.8270     0.82700
  359          H           0.173003        0.8270     0.82700
  360          H           0.173003        0.8270     0.82700


          ATOMIC ORBITAL ELECTRON POPULATIONS

     Atom    s        px        py        pz   
    1  C   1.08688   0.98921   1.06831   1.01370
    2  C   1.08688   1.06831   0.98921   1.01370
    3  C   1.08688   1.01370   0.98921   1.06831
    4  C   1.08688   1.06831   1.01370   0.98921
    5  C   1.08688   1.01370   0.98921   1.06831
    6  C   1.08688   1.06831   1.01370   0.98921
    7  C   1.08688   0.98921   1.06831   1.01370
    8  C   1.08688   1.06831   0.98921   1.01370
    9  C   1.08688   0.98921   1.01370   1.06831
   10  C   1.08688   1.06831   0.98921   1.01370
   11  C   1.08688   1.01370   1.06831   0.98921
   12  C   1.08688   0.98921   1.01370   1.06831
   13  C   1.08688   1.01370   1.06831   0.98921
   14  C   1.08688   1.06831   1.01370   0.98921
   15  C   1.08688   0.98921   1.06831   1.01370
   16  C   1.08688   0.98921   1.06831   1.01370
   17  C   1.08688   1.01370   0.98921   1.06831
   18  C   1.08688   1.01370   0.98921   1.06831
   19  C   1.08688   1.06831   1.01370   0.98921
   20  C   1.08688   0.98921   1.01370   1.06831
   21  C   1.08688   1.01370   1.06831   0.98921
   22  C   1.08688   1.06831   0.98921   1.01370
   23  C   1.08688   1.01370   1.06831   0.98921
   24  C   1.08688   0.98921   1.01370   1.06831
   25  C   1.08923   0.98919   1.06048   0.98590
   26  C   1.08923   1.06048   0.98919   0.98590
   27  C   1.08923   0.98590   0.98919   1.06048
   28  C   1.08923   1.06048   0.98590   0.98919
   29  C   1.08923   0.98590   0.98919   1.06048
   30  C   1.08923   1.06048   0.98590   0.98919
   31  C   1.08923   0.98919   1.06048   0.98590
   32  C   1.08923   1.06048   0.98919   0.98590
   33  C   1.08923   0.98919   0.98590   1.06048
   34  C   1.08923   1.06048   0.98919   0.98590
   35  C   1.08923   0.98590   1.06048   0.98919
   36  C   1.08923   0.98919   0.98590   1.06048
   37  C   1.08923   0.98590   1.06048   0.98919
   38  C   1.08923   1.06048   0.98590   0.98919
   39  C   1.08923   0.98919   1.06048   0.98590
   40  C   1.08923   0.98919   1.06048   0.98590
   41  C   1.08923   0.98590   0.98919   1.06048
   42  C   1.08923   0.98590   0.98919   1.06048
   43  C   1.08923   1.06048   0.98590   0.98919
   44  C   1.08923   0.98919   0.98590   1.06048
   45  C   1.08923   0.98590   1.06048   0.98919
   46  C   1.08923   1.06048   0.98919   0.98590
   47  C   1.08923   0.98590   1.06048   0.98919
   48  C   1.08923   0.98919   0.98590   1.06048
   49  C   1.10603   1.05831   0.99356   0.92133
   50  C   1.10603   0.99356   1.05831   0.92133
   51  C   1.10603   0.92133   1.05831   0.99356
   52  C   1.10603   0.99356   0.92133   1.05831
   53  C   1.10603   0.92133   1.05831   0.99356
   54  C   1.10603   0.99356   0.92133   1.05831
   55  C   1.10603   1.05831   0.99356   0.92133
   56  C   1.10603   0.99356   1.05831   0.92133
   57  C   1.10603   1.05831   0.92133   0.99356
   58  C   1.10603   0.99356   1.05831   0.92133
   59  C   1.10603   0.92133   0.99356   1.05831
   60  C   1.10603   1.05831   0.92133   0.99356
   61  C   1.10603   0.92133   0.99356   1.05831
   62  C   1.10603   0.99356   0.92133   1.05831
   63  C   1.10603   1.05831   0.99356   0.92133
   64  C   1.10603   1.05831   0.99356   0.92133
   65  C   1.10603   0.92133   1.05831   0.99356
   66  C   1.10603   0.92133   1.05831   0.99356
   67  C   1.10603   0.99356   0.92133   1.05831
   68  C   1.10603   1.05831   0.92133   0.99356
   69  C   1.10603   0.92133   0.99356   1.05831
   70  C   1.10603   0.99356   1.05831   0.92133
   71  C   1.10603   0.92133   0.99356   1.05831
   72  C   1.10603   1.05831   0.92133   0.99356
   73  C   1.07701   0.97726   0.97467   0.96742
   74  C   1.07701   0.97467   0.97726   0.96742
   75  C   1.07701   0.96742   0.97726   0.97467
   76  C   1.07701   0.97467   0.96742   0.97726
   77  C   1.07701   0.96742   0.97726   0.97467
   78  C   1.07701   0.97467   0.96742   0.97726
   79  C   1.07701   0.97726   0.97467   0.96742
   80  C   1.07701   0.97467   0.97726   0.96742
   81  C   1.07701   0.97726   0.96742   0.97467
   82  C   1.07701   0.97467   0.97726   0.96742
   83  C   1.07701   0.96742   0.97467   0.97726
   84  C   1.07701   0.97726   0.96742   0.97467
   85  C   1.07701   0.96742   0.97467   0.97726
   86  C   1.07701   0.97467   0.96742   0.97726
   87  C   1.07701   0.97726   0.97467   0.96742
   88  C   1.07701   0.97726   0.97467   0.96742
   89  C   1.07701   0.96742   0.97726   0.97467
   90  C   1.07701   0.96742   0.97726   0.97467
   91  C   1.07701   0.97467   0.96742   0.97726
   92  C   1.07701   0.97726   0.96742   0.97467
   93  C   1.07701   0.96742   0.97467   0.97726
   94  C   1.07701   0.97467   0.97726   0.96742
   95  C   1.07701   0.96742   0.97467   0.97726
   96  C   1.07701   0.97726   0.96742   0.97467
   97  C   1.08079   0.97727   1.00753   1.00846
   98  C   1.08079   1.00753   0.97727   1.00846
   99  C   1.08079   1.00846   0.97727   1.00753
  100  C   1.08079   1.00753   1.00846   0.97727
  101  C   1.08079   1.00846   0.97727   1.00753
  102  C   1.08079   1.00753   1.00846   0.97727
  103  C   1.08079   0.97727   1.00753   1.00846
  104  C   1.08079   1.00753   0.97727   1.00846
  105  C   1.08079   0.97727   1.00846   1.00753
  106  C   1.08079   1.00753   0.97727   1.00846
  107  C   1.08079   1.00846   1.00753   0.97727
  108  C   1.08079   0.97727   1.00846   1.00753
  109  C   1.08079   1.00846   1.00753   0.97727
  110  C   1.08079   1.00753   1.00846   0.97727
  111  C   1.08079   0.97727   1.00753   1.00846
  112  C   1.08079   0.97727   1.00753   1.00846
  113  C   1.08079   1.00846   0.97727   1.00753
  114  C   1.08079   1.00846   0.97727   1.00753
  115  C   1.08079   1.00753   1.00846   0.97727
  116  C   1.08079   0.97727   1.00846   1.00753
  117  C   1.08079   1.00846   1.00753   0.97727
  118  C   1.08079   1.00753   0.97727   1.00846
  119  C   1.08079   1.00846   1.00753   0.97727
  120  C   1.08079   0.97727   1.00846   1.00753
  121  C   1.07482   0.98097   0.99772   0.97216
  122  C   1.07482   0.99772   0.98097   0.97216
  123  C   1.07482   0.97216   0.98097   0.99772
  124  C   1.07482   0.99772   0.97216   0.98097
  125  C   1.07482   0.97216   0.98097   0.99772
  126  C   1.07482   0.99772   0.97216   0.98097
  127  C   1.07482   0.98097   0.99772   0.97216
  128  C   1.07482   0.99772   0.98097   0.97216
  129  C   1.07482   0.98097   0.97216   0.99772
  130  C   1.07482   0.99772   0.98097   0.97216
  131  C   1.07482   0.97216   0.99772   0.98097
  132  C   1.07482   0.98097   0.97216   0.99772
  133  C   1.07482   0.97216   0.99772   0.98097
  134  C   1.07482   0.99772   0.97216   0.98097
  135  C   1.07482   0.98097   0.99772   0.97216
  136  C   1.07482   0.98097   0.99772   0.97216
  137  C   1.07482   0.97216   0.98097   0.99772
  138  C   1.07482   0.97216   0.98097   0.99772
  139  C   1.07482   0.99772   0.97216   0.98097
  140  C   1.07482   0.98097   0.97216   0.99772
  141  C   1.07482   0.97216   0.99772   0.98097
  142  C   1.07482   0.99772   0.98097   0.97216
  143  C   1.07482   0.97216   0.99772   0.98097
  144  C   1.07482   0.98097   0.97216   0.99772
  145  C   1.07589   0.96748   0.92350   0.97436
  146  C   1.07589   0.92350   0.96748   0.97436
  147  C   1.07589   0.97436   0.96748   0.92350
  148  C   1.07589   0.92350   0.97436   0.96748
  149  C   1.07589   0.97436   0.96748   0.92350
  150  C   1.07589   0.92350   0.97436   0.96748
  151  C   1.07589   0.96748   0.92350   0.97436
  152  C   1.07589   0.92350   0.96748   0.97436
  153  C   1.07589   0.96748   0.97436   0.92350
  154  C   1.07589   0.92350   0.96748   0.97436
  155  C   1.07589   0.97436   0.92350   0.96748
  156  C   1.07589   0.96748   0.97436   0.92350
  157  C   1.07589   0.97436   0.92350   0.96748
  158  C   1.07589   0.92350   0.97436   0.96748
  159  C   1.07589   0.96748   0.92350   0.97436
  160  C   1.07589   0.96748   0.92350   0.97436
  161  C   1.07589   0.97436   0.96748   0.92350
  162  C   1.07589   0.97436   0.96748   0.92350
  163  C   1.07589   0.92350   0.97436   0.96748
  164  C   1.07589   0.96748   0.97436   0.92350
  165  C   1.07589   0.97436   0.92350   0.96748
  166  C   1.07589   0.92350   0.96748   0.97436
  167  C   1.07589   0.97436   0.92350   0.96748
  168  C   1.07589   0.96748   0.97436   0.92350
  169  C   1.06680   0.99009   0.97966   1.01129
  170  C   1.06680   0.97966   0.99009   1.01129
  171  C   1.06680   1.01129   0.99009   0.97966
  172  C   1.06680   0.97966   1.01129   0.99009
  173  C   1.06680   1.01129   0.99009   0.97966
  174  C   1.06680   0.97966   1.01129   0.99009
  175  C   1.06680   0.99009   0.97966   1.01129
  176  C   1.06680   0.97966   0.99009   1.01129
  177  C   1.06680   0.99009   1.01129   0.97966
  178  C   1.06680   0.97966   0.99009   1.01129
  179  C   1.06680   1.01129   0.97966   0.99009
  180  C   1.06680   0.99009   1.01129   0.97966
  181  C   1.06680   1.01129   0.97966   0.99009
  182  C   1.06680   0.97966   1.01129   0.99009
  183  C   1.06680   0.99009   0.97966   1.01129
  184  C   1.06680   0.99009   0.97966   1.01129
  185  C   1.06680   1.01129   0.99009   0.97966
  186  C   1.06680   1.01129   0.99009   0.97966
  187  C   1.06680   0.97966   1.01129   0.99009
  188  C   1.06680   0.99009   1.01129   0.97966
  189  C   1.06680   1.01129   0.97966   0.99009
  190  C   1.06680   0.97966   0.99009   1.01129
  191  C   1.06680   1.01129   0.97966   0.99009
  192  C   1.06680   0.99009   1.01129   0.97966
  193  C   1.09789   0.93108   1.02831   0.94117
  194  C   1.09789   1.02831   0.93108   0.94117
  195  C   1.09789   0.94117   0.93108   1.02831
  196  C   1.09789   1.02831   0.94117   0.93108
  197  C   1.09789   0.94117   0.93108   1.02831
  198  C   1.09789   1.02831   0.94117   0.93108
  199  C   1.09789   0.93108   1.02831   0.94117
  200  C   1.09789   1.02831   0.93108   0.94117
  201  C   1.09789   0.93108   0.94117   1.02831
  202  C   1.09789   1.02831   0.93108   0.94117
  203  C   1.09789   0.94117   1.02831   0.93108
  204  C   1.09789   0.93108   0.94117   1.02831
  205  C   1.09789   0.94117   1.02831   0.93108
  206  C   1.09789   1.02831   0.94117   0.93108
  207  C   1.09789   0.93108   1.02831   0.94117
  208  C   1.09789   0.93108   1.02831   0.94117
  209  C   1.09789   0.94117   0.93108   1.02831
  210  C   1.09789   0.94117   0.93108   1.02831
  211  C   1.09789   1.02831   0.94117   0.93108
  212  C   1.09789   0.93108   0.94117   1.02831
  213  C   1.09789   0.94117   1.02831   0.93108
  214  C   1.09789   1.02831   0.93108   0.94117
  215  C   1.09789   0.94117   1.02831   0.93108
  216  C   1.09789   0.93108   0.94117   1.02831
  217  C   1.09761   1.00576   0.96029   0.95651
  218  C   1.09761   0.96029   1.00576   0.95651
  219  C   1.09761   0.95651   1.00576   0.96029
  220  C   1.09761   0.96029   0.95651   1.00576
  221  C   1.09761   0.95651   1.00576   0.96029
  222  C   1.09761   0.96029   0.95651   1.00576
  223  C   1.09761   1.00576   0.96029   0.95651
  224  C   1.09761   0.96029   1.00576   0.95651
  225  C   1.09761   1.00576   0.95651   0.96029
  226  C   1.09761   0.96029   1.00576   0.95651
  227  C   1.09761   0.95651   0.96029   1.00576
  228  C   1.09761   1.00576   0.95651   0.96029
  229  C   1.09761   0.95651   0.96029   1.00576
  230  C   1.09761   0.96029   0.95651   1.00576
  231  C   1.09761   1.00576   0.96029   0.95651
  232  C   1.09761   1.00576   0.96029   0.95651
  233  C   1.09761   0.95651   1.00576   0.96029
  234  C   1.09761   0.95651   1.00576   0.96029
  235  C   1.09761   0.96029   0.95651   1.00576
  236  C   1.09761   1.00576   0.95651   0.96029
  237  C   1.09761   0.95651   0.96029   1.00576
  238  C   1.09761   0.96029   1.00576   0.95651
  239  C   1.09761   0.95651   0.96029   1.00576
  240  C   1.09761   1.00576   0.95651   0.96029
  241  C   1.06606   0.96573   0.98559   0.99848
  242  C   1.06606   0.98559   0.96573   0.99848
  243  C   1.06606   0.99848   0.96573   0.98559
  244  C   1.06606   0.98559   0.99848   0.96573
  245  C   1.06606   0.99848   0.96573   0.98559
  246  C   1.06606   0.98559   0.99848   0.96573
  247  C   1.06606   0.96573   0.98559   0.99848
  248  C   1.06606   0.98559   0.96573   0.99848
  249  C   1.06606   0.96573   0.99848   0.98559
  250  C   1.06606   0.98559   0.96573   0.99848
  251  C   1.06606   0.99848   0.98559   0.96573
  252  C   1.06606   0.96573   0.99848   0.98559
  253  C   1.06606   0.99848   0.98559   0.96573
  254  C   1.06606   0.98559   0.99848   0.96573
  255  C   1.06606   0.96573   0.98559   0.99848
  256  C   1.06606   0.96573   0.98559   0.99848
  257  C   1.06606   0.99848   0.96573   0.98559
  258  C   1.06606   0.99848   0.96573   0.98559
  259  C   1.06606   0.98559   0.99848   0.96573
  260  C   1.06606   0.96573   0.99848   0.98559
  261  C   1.06606   0.99848   0.98559   0.96573
  262  C   1.06606   0.98559   0.96573   0.99848
  263  C   1.06606   0.99848   0.98559   0.96573
  264  C   1.06606   0.96573   0.99848   0.98559
  265  B   0.65881   0.97484   0.80994   0.55983
  266  B   0.65881   0.80994   0.97484   0.55983
  267  B   0.65881   0.55983   0.97484   0.80994
  268  B   0.65881   0.80994   0.55983   0.97484
  269  B   0.65881   0.55983   0.97484   0.80994
  270  B   0.65881   0.80994   0.55983   0.97484
  271  B   0.65881   0.97484   0.80994   0.55983
  272  B   0.65881   0.80994   0.97484   0.55983
  273  B   0.65881   0.97484   0.55983   0.80994
  274  B   0.65881   0.80994   0.97484   0.55983
  275  B   0.65881   0.55983   0.80994   0.97484
  276  B   0.65881   0.97484   0.55983   0.80994
  277  B   0.65881   0.55983   0.80994   0.97484
  278  B   0.65881   0.80994   0.55983   0.97484
  279  B   0.65881   0.97484   0.80994   0.55983
  280  B   0.65881   0.97484   0.80994   0.55983
  281  B   0.65881   0.55983   0.97484   0.80994
  282  B   0.65881   0.55983   0.97484   0.80994
  283  B   0.65881   0.80994   0.55983   0.97484
  284  B   0.65881   0.97484   0.55983   0.80994
  285  B   0.65881   0.55983   0.80994   0.97484
  286  B   0.65881   0.80994   0.97484   0.55983
  287  B   0.65881   0.55983   0.80994   0.97484
  288  B   0.65881   0.97484   0.55983   0.80994
  289  H   0.84428
  290  H   0.84428
  291  H   0.84428
  292  H   0.84428
  293  H   0.84428
  294  H   0.84428
  295  H   0.84428
  296  H   0.84428
  297  H   0.84428
  298  H   0.84428
  299  H   0.84428
  300  H   0.84428
  301  H   0.84428
  302  H   0.84428
  303  H   0.84428
  304  H   0.84428
  305  H   0.84428
  306  H   0.84428
  307  H   0.84428
  308  H   0.84428
  309  H   0.84428
  310  H   0.84428
  311  H   0.84428
  312  H   0.84428
  313  H   0.84357
  314  H   0.84357
  315  H   0.84357
  316  H   0.84357
  317  H   0.84357
  318  H   0.84357
  319  H   0.84357
  320  H   0.84357
  321  H   0.84357
  322  H   0.84357
  323  H   0.84357
  324  H   0.84357
  325  H   0.84357
  326  H   0.84357
  327  H   0.84357
  328  H   0.84357
  329  H   0.84357
  330  H   0.84357
  331  H   0.84357
  332  H   0.84357
  333  H   0.84357
  334  H   0.84357
  335  H   0.84357
  336  H   0.84357
  337  H   0.82700
  338  H   0.82700
  339  H   0.82700
  340  H   0.82700
  341  H   0.82700
  342  H   0.82700
  343  H   0.82700
  344  H   0.82700
  345  H   0.82700
  346  H   0.82700
  347  H   0.82700
  348  H   0.82700
  349  H   0.82700
  350  H   0.82700
  351  H   0.82700
  352  H   0.82700
  353  H   0.82700
  354  H   0.82700
  355  H   0.82700
  356  H   0.82700
  357  H   0.82700
  358  H   0.82700
  359  H   0.82700
  360  H   0.82700

 **********************
 *                    *
 * JOB ENDED NORMALLY *
 *                    *
 **********************



 TOTAL JOB TIME:            26.82 SECONDS

 == MOPAC DONE ==
