 *******************************************************************************
 **                                                                           **
 **                              MOPAC v22.1.0                                **
 **                                                                           **
 *******************************************************************************
 **          Digital Object Identifier (DOI): 10.5281/zenodo.6511958          **
 **    Visit the DOI location for information on how to cite this program.    **
 *******************************************************************************

                              PM7 CALCULATION RESULTS

 *******************************************************************************
 *  CALCULATION DONE:                                Wed Jan 31 16:48:13 2024  *
 *  PM7        - The PM7 Hamiltonian to be used
 *  NOOPT      - DO NOT OPTIMIZE ANY COORDINATES
 *
 *
 *
 *                 CHARGE ON SYSTEM = 0
 *
 *
 *
 *  T=         - A TIME OF 172800.0 SECONDS REQUESTED
 *  DUMP=N     - RESTART FILE WRITTEN EVERY 7200.0 SECONDS REQUESTED
 *******************************************************************************
PM7 CHARGE=0 NOOPT


   ATOM   CHEMICAL          X               Y               Z
  NUMBER   SYMBOL      (ANGSTROMS)     (ANGSTROMS)     (ANGSTROMS)

     1       C         17.76606700     14.46125600     21.22974000   
     2       C          8.44375600     23.78356700      8.85776000   
     3       C          2.84026000      5.73106700     21.64374400   
     4       C         21.64374400      2.84026000      5.73106700   
     5       C         21.22974000     17.76606700     14.46125600   
     6       C         14.46125600     21.22974000     17.76606700   
     7       C          5.73106700     21.64374400      2.84026000   
     8       C         20.47875600     12.32143300     15.21224000   
     9       C          0.28643300     20.89276000      3.59124400   
    10       C          3.59124400      0.28643300     20.89276000   
    11       C         20.89276000      3.59124400      0.28643300   
    12       C         12.32143300     15.21224000     20.47875600   
    13       C         15.21224000     20.47875600     12.32143300   
    14       C          9.60874400      9.19474000     18.33893300   
    15       C          6.30393300      2.42625600     14.87526000   
    16       C         18.33893300      9.60874400      9.19474000   
    17       C         14.87526000      6.30393300      2.42625600   
    18       C          9.19474000     18.33893300      9.60874400   
    19       C          2.42625600     14.87526000      6.30393300   
    20       C         23.78356700      8.85776000      8.44375600   
    21       C          3.17724000     15.62624400     11.74856700   
    22       C         15.62624400     11.74856700      3.17724000   
    23       C          8.85776000      8.44375600     23.78356700   
    24       C         11.74856700      3.17724000     15.62624400   
    25       C         18.94068300     14.63696700     20.42098800   
    26       C          8.61946700      0.88818300      9.66651200   
    27       C          3.64901200      6.90568300     21.46803300   
    28       C         21.46803300      3.64901200      6.90568300   
    29       C         20.42098800     18.94068300     14.63696700   
    30       C         14.63696700     20.42098800     18.94068300   
    31       C          6.90568300     21.46803300      3.64901200   
    32       C         20.65446700     11.14681700     14.40348800   
    33       C         23.18181700     21.70151200      3.41553300   
    34       C          3.41553300     23.18181700     21.70151200   
    35       C         21.70151200      3.41553300     23.18181700   
    36       C         11.14681700     14.40348800     20.65446700   
    37       C         14.40348800     20.65446700     11.14681700   
    38       C          9.43303300      8.38598800     17.16431700   
    39       C          5.12931700      2.60196700     15.68401200   
    40       C         17.16431700      9.43303300      8.38598800   
    41       C         15.68401200      5.12931700      2.60196700   
    42       C          8.38598800     17.16431700      9.43303300   
    43       C          2.60196700     15.68401200      5.12931700   
    44       C          0.88818300      9.66651200      8.61946700   
    45       C          2.36848800     15.45053300     12.92318300   
    46       C         15.45053300     12.92318300      2.36848800   
    47       C          9.66651200      8.61946700      0.88818300   
    48       C         12.92318300      2.36848800     15.45053300   
    49       C         14.79342200     17.30392300     20.81332900   
    50       C         11.28642300     20.81092200      9.27417100   
    51       C          3.25667100      2.75842200     18.80107700   
    52       C         18.80107700      3.25667100      2.75842200   
    53       C         20.81332900     14.79342200     17.30392300   
    54       C         17.30392300     20.81332900     14.79342200   
    55       C          2.75842200     18.80107700      3.25667100   
    56       C         23.32142300     15.29407800     14.79582900   
    57       C          3.25907800     21.30917100      0.74857700   
    58       C          0.74857700      3.25907800     21.30917100   
    59       C         21.30917100      0.74857700      3.25907800   
    60       C         15.29407800     14.79582900     23.32142300   
    61       C         14.79582900     23.32142300     15.29407800   
    62       C          6.76607700      8.77832900     21.31157800   
    63       C          9.27657800      5.26892300     15.29167100   
    64       C         21.31157800      6.76607700      8.77832900   
    65       C         15.29167100      9.27657800      5.26892300   
    66       C          8.77832900     21.31157800      6.76607700   
    67       C          5.26892300     15.29167100      9.27657800   
    68       C         20.81092200      9.27417100     11.28642300   
    69       C          2.76082900     12.78357700      8.77592200   
    70       C         12.78357700      8.77592200      2.76082900   
    71       C          9.27417100     11.28642300     20.81092200   
    72       C          8.77592200      2.76082900     12.78357700   
    73       C         15.55884800     15.38313700     22.14199300   
    74       C          9.36563700     21.57634800      7.94550700   
    75       C          1.92800700      3.52384800     20.72186300   
    76       C         20.72186300      1.92800700      3.52384800   
    77       C         22.14199300     15.55884800     15.38313700   
    78       C         15.38313700     22.14199300     15.55884800   
    79       C          3.52384800     20.72186300      1.92800700   
    80       C         21.40063700     14.52865200     16.12449300   
    81       C          2.49365200     19.98050700      2.66936300   
    82       C          2.66936300      2.49365200     19.98050700   
    83       C         19.98050700      2.66936300      2.49365200   
    84       C         14.52865200     16.12449300     21.40063700   
    85       C         16.12449300     21.40063700     14.52865200   
    86       C          8.68686300     10.10699300     20.54615200   
    87       C          8.51115200      3.34813700     13.96300700   
    88       C         20.54615200      8.68686300     10.10699300   
    89       C         13.96300700      8.51115200      3.34813700   
    90       C         10.10699300     20.54615200      8.68686300   
    91       C          3.34813700     13.96300700      8.51115200   
    92       C         21.57634800      7.94550700      9.36563700   
    93       C          4.08949300     14.70436300      9.54134800   
    94       C         14.70436300      9.54134800      4.08949300   
    95       C          7.94550700      9.36563700     21.57634800   
    96       C          9.54134800      4.08949300     14.70436300   
    97       C         19.21748800     19.98050700     17.98510400   
    98       C         13.96300700      1.16498800     12.10239600   
    99       C          6.08489600      7.18248800     16.12449300   
   100       C         16.12449300      6.08489600      7.18248800   
   101       C         17.98510400     19.21748800     19.98050700   
   102       C         19.98050700     17.98510400     19.21748800   
   103       C          7.18248800     16.12449300      6.08489600   
   104       C          1.92800700     10.87001200     11.96760400   
   105       C         22.90501200      0.06739600     22.14199300   
   106       C         22.14199300     22.90501200      0.06739600   
   107       C          0.06739600     22.14199300     22.90501200   
   108       C         10.87001200     11.96760400      1.92800700   
   109       C         11.96760400      1.92800700     10.87001200   
   110       C          4.08949300      5.95010400     16.88751200   
   111       C          4.85251200      7.94550700     18.11989600   
   112       C         16.88751200      4.08949300      5.95010400   
   113       C         18.11989600      4.85251200      7.94550700   
   114       C          5.95010400     16.88751200      4.08949300   
   115       C          7.94550700     18.11989600      4.85251200   
   116       C          1.16498800     12.10239600     13.96300700   
   117       C         24.00260400     10.10699300     13.19998800   
   118       C         10.10699300     13.19998800     24.00260400   
   119       C         12.10239600     13.96300700      1.16498800   
   120       C         13.19998800     24.00260400     10.10699300   
   121       C         18.45687600     16.94528000     20.56300100   
   122       C         10.92778000      0.40437600      9.52449900   
   123       C          3.50699900      6.42187600     19.15972000   
   124       C         19.15972000      3.50699900      6.42187600   
   125       C         20.56300100     18.45687600     16.94528000   
   126       C         16.94528000     20.56300100     18.45687600   
   127       C          6.42187600     19.15972000      3.50699900   
   128       C         22.96278000     11.63062400     14.54550100   
   129       C         23.66562400     21.55949900      1.10722000   
   130       C          1.10722000     23.66562400     21.55949900   
   131       C         21.55949900      1.10722000     23.66562400   
   132       C         11.63062400     14.54550100     22.96278000   
   133       C         14.54550100     22.96278000     11.63062400   
   134       C          7.12472000      8.52800100     17.64812400   
   135       C          5.61312400      4.91028000     15.54199900   
   136       C         17.64812400      7.12472000      8.52800100   
   137       C         15.54199900      5.61312400      4.91028000   
   138       C          8.52800100     17.64812400      7.12472000   
   139       C          4.91028000     15.54199900      5.61312400   
   140       C          0.40437600      9.52449900     10.92778000   
   141       C          2.51050100     13.14222000     12.43937600   
   142       C         13.14222000     12.43937600      2.51050100   
   143       C          9.52449900     10.92778000      0.40437600   
   144       C         12.43937600      2.51050100     13.14222000   
   145       C         16.54812500     19.02011400     20.18991600   
   146       C         13.00261400     22.56562500      9.89758400   
   147       C          3.88008400      4.51312500     17.08488600   
   148       C         17.08488600      3.88008400      4.51312500   
   149       C         20.18991600     16.54812500     19.02011400   
   150       C         19.02011400     20.18991600     16.54812500   
   151       C          4.51312500     17.08488600      3.88008400   
   152       C          0.96761400     13.53937500     14.17241600   
   153       C          1.50437500     21.93258400     23.10238600   
   154       C         23.10238600      1.50437500     21.93258400   
   155       C         21.93258400     23.10238600      1.50437500   
   156       C         13.53937500     14.17241600      0.96761400   
   157       C         14.17241600      0.96761400     13.53937500   
   158       C          5.04988600      8.15491600     19.55687500   
   159       C          7.52187500      6.98511400     15.91508400   
   160       C         19.55687500      5.04988600      8.15491600   
   161       C         15.91508400      7.52187500      6.98511400   
   162       C          8.15491600     19.55687500      5.04988600   
   163       C          6.98511400     15.91508400      7.52187500   
   164       C         22.56562500      9.89758400     13.00261400   
   165       C          2.13741600     11.06738600     10.53062500   
   166       C         11.06738600     10.53062500      2.13741600   
   167       C          9.89758400     13.00261400     22.56562500   
   168       C         10.53062500      2.13741600     11.06738600   
   169       C         23.22514300     21.99035200     23.90873100   
   170       C         15.97285200      5.17264300      6.17876900   
   171       C          0.16126900     11.19014300     14.11464800   
   172       C         14.11464800      0.16126900     11.19014300   
   173       C         23.90873100     23.22514300     21.99035200   
   174       C         21.99035200     23.90873100     23.22514300   
   175       C         11.19014300     14.11464800      0.16126900   
   176       C          3.93785200      6.86235700     17.89123100   
   177       C         18.89735700     18.21376900     20.13214800   
   178       C         20.13214800     18.89735700     18.21376900   
   179       C         18.21376900     20.13214800     18.89735700   
   180       C          6.86235700     17.89123100      3.93785200   
   181       C         17.89123100      3.93785200      6.86235700   
   182       C          2.07964800     11.87373100     12.87985700   
   183       C          0.84485700      9.95535200     12.19626900   
   184       C         12.87985700      2.07964800     11.87373100   
   185       C         12.19626900      0.84485700      9.95535200   
   186       C         11.87373100     12.87985700      2.07964800   
   187       C          9.95535200     12.19626900      0.84485700   
   188       C          5.17264300      6.17876900     15.97285200   
   189       C          5.85623100      8.09714800     17.20764300   
   190       C          8.09714800     17.20764300      5.85623100   
   191       C          6.17876900     15.97285200      5.17264300   
   192       C         17.20764300      5.85623100      8.09714800   
   193       C         17.16672400     16.79123200     21.00829600   
   194       C         10.77373200     23.18422400      9.07920400   
   195       C          3.06170400      5.13172400     19.31376800   
   196       C         19.31376800      3.06170400      5.13172400   
   197       C         21.00829600     17.16672400     16.79123200   
   198       C         16.79123200     21.00829600     17.16672400   
   199       C          5.13172400     19.31376800      3.06170400   
   200       C         22.80873200     12.92077600     14.99079600   
   201       C          0.88577600     21.11420400      1.26126800   
   202       C          1.26126800      0.88577600     21.11420400   
   203       C         21.11420400      1.26126800      0.88577600   
   204       C         12.92077600     14.99079600     22.80873200   
   205       C         14.99079600     22.80873200     12.92077600   
   206       C          7.27876800      8.97329600     18.93827600   
   207       C          6.90327600      4.75623200     15.09670400   
   208       C         18.93827600      7.27876800      8.97329600   
   209       C         15.09670400      6.90327600      4.75623200   
   210       C          8.97329600     18.93827600      7.27876800   
   211       C          4.75623200     15.09670400      6.90327600   
   212       C         23.18422400      9.07920400     10.77373200   
   213       C          2.95579600     13.29626800     11.14922400   
   214       C         13.29626800     11.14922400      2.95579600   
   215       C          9.07920400     10.77373200     23.18422400   
   216       C         11.14922400      2.95579600     13.29626800   
   217       C         16.16300500     17.81420700     20.72908400   
   218       C         11.79670700     22.18050500      9.35841600   
   219       C          3.34091600      4.12800500     18.29079300   
   220       C         18.29079300      3.34091600      4.12800500   
   221       C         20.72908400     16.16300500     17.81420700   
   222       C         17.81420700     20.72908400     16.16300500   
   223       C          4.12800500     18.29079300      3.34091600   
   224       C         23.83170700     13.92449500     14.71158400   
   225       C          1.88949500     21.39341600      0.23829300   
   226       C          0.23829300      1.88949500     21.39341600   
   227       C         21.39341600      0.23829300      1.88949500   
   228       C         13.92449500     14.71158400     23.83170700   
   229       C         14.71158400     23.83170700     13.92449500   
   230       C          6.25579300      8.69408400     19.94199500   
   231       C          7.90699500      5.77920700     15.37591600   
   232       C         19.94199500      6.25579300      8.69408400   
   233       C         15.37591600      7.90699500      5.77920700   
   234       C          8.69408400     19.94199500      6.25579300   
   235       C          5.77920700     15.37591600      7.90699500   
   236       C         22.18050500      9.35841600     11.79670700   
   237       C          2.67658400     12.27329300     10.14550500   
   238       C         12.27329300     10.14550500      2.67658400   
   239       C          9.35841600     11.79670700     22.18050500   
   240       C         10.14550500      2.67658400     12.27329300   
   241       C         19.29932600     15.89101400     20.03346100   
   242       C          9.87351400      1.24682600     10.05403900   
   243       C          4.03653900      7.26432600     20.21398600   
   244       C         20.21398600      4.03653900      7.26432600   
   245       C         20.03346100     19.29932600     15.89101400   
   246       C         15.89101400     20.03346100     19.29932600   
   247       C          7.26432600     20.21398600      4.03653900   
   248       C         21.90851400     10.78817400     14.01596100   
   249       C         22.82317400     22.08903900      2.16148600   
   250       C          2.16148600     22.82317400     22.08903900   
   251       C         22.08903900      2.16148600     22.82317400   
   252       C         10.78817400     14.01596100     21.90851400   
   253       C         14.01596100     21.90851400     10.78817400   
   254       C          8.17898600      7.99846100     16.80567400   
   255       C          4.77067400      3.85601400     16.07153900   
   256       C         16.80567400      8.17898600      7.99846100   
   257       C         16.07153900      4.77067400      3.85601400   
   258       C          7.99846100     16.80567400      8.17898600   
   259       C          3.85601400     16.07153900      4.77067400   
   260       C          1.24682600     10.05403900      9.87351400   
   261       C          1.98096100     14.19648600     13.28182600   
   262       C         14.19648600     13.28182600      1.98096100   
   263       C         10.05403900      9.87351400      1.24682600   
   264       C         13.28182600      1.98096100     14.19648600   
   265       B         16.88029100     15.47701000     21.48728900   
   266       B          9.45951000     22.89779100      8.60021100   
   267       B          2.58271100      4.84529100     20.62799000   
   268       B         20.62799000      2.58271100      4.84529100   
   269       B         21.48728900     16.88029100     15.47701000   
   270       B         15.47701000     21.48728900     16.88029100   
   271       B          4.84529100     20.62799000      2.58271100   
   272       B         21.49451000     13.20720900     15.46978900   
   273       B          1.17220900     20.63521100      2.57549000   
   274       B          2.57549000      1.17220900     20.63521100   
   275       B         20.63521100      2.57549000      1.17220900   
   276       B         13.20720900     15.46978900     21.49451000   
   277       B         15.46978900     21.49451000     13.20720900   
   278       B          8.59299000      9.45228900     19.22470900   
   279       B          7.18970900      3.44201000     14.61771100   
   280       B         19.22470900      8.59299000      9.45228900   
   281       B         14.61771100      7.18970900      3.44201000   
   282       B          9.45228900     19.22470900      8.59299000   
   283       B          3.44201000     14.61771100      7.18970900   
   284       B         22.89779100      8.60021100      9.45951000   
   285       B          3.43478900     14.61049000     10.86279100   
   286       B         14.61049000     10.86279100      3.43478900   
   287       B          8.60021100      9.45951000     22.89779100   
   288       B         10.86279100      3.43478900     14.61049000   
   289       H         13.45031600     21.59801100     17.55184400   
   290       H         15.58051100     19.46781600     12.53565600   
   291       H          6.51815600      1.41531600     14.50698900   
   292       H         14.50698900      6.51815600      1.41531600   
   293       H         17.55184400     13.45031600     21.59801100   
   294       H         21.59801100     17.55184400     13.45031600   
   295       H          1.41531600     14.50698900      6.51815600   
   296       H          3.54551100     16.63718400     11.53434400   
   297       H          4.60218400      0.50065600     20.52448900   
   298       H         20.52448900      4.60218400      0.50065600   
   299       H          0.50065600     20.52448900      4.60218400   
   300       H         16.63718400     11.53434400      3.54551100   
   301       H         11.53434400      3.54551100     16.63718400   
   302       H          2.47198900      5.51684400     22.65468400   
   303       H         10.61968400      9.56301100     18.55315600   
   304       H         22.65468400      2.47198900      5.51684400   
   305       H         18.55315600     10.61968400      9.56301100   
   306       H          5.51684400     22.65468400      2.47198900   
   307       H          9.56301100     18.55315600     10.61968400   
   308       H         19.46781600     12.53565600     15.58051100   
   309       H         23.56934400      8.48948900      7.43281600   
   310       H          8.48948900      7.43281600     23.56934400   
   311       H         12.53565600     15.58051100     19.46781600   
   312       H          7.43281600     23.56934400      8.48948900   
   313       H         13.74878400     20.12733400     19.49910700   
   314       H         14.10983400     19.76628400     10.58839300   
   315       H          4.57089300      1.71378400     15.97766600   
   316       H         15.97766600      4.57089300      1.71378400   
   317       H         19.49910700     13.74878400     20.12733400   
   318       H         20.12733400     19.49910700     13.74878400   
   319       H          1.71378400     15.97766600      4.57089300   
   320       H          2.07483400     16.33871600     13.48160700   
   321       H          4.30371600     22.62339300     21.99516600   
   322       H         21.99516600      4.30371600     22.62339300   
   323       H         22.62339300     21.99516600      4.30371600   
   324       H         16.33871600     13.48160700      2.07483400   
   325       H         13.48160700      2.07483400     16.33871600   
   326       H          3.94266600      7.46410700     22.35621600   
   327       H         10.32121600      8.09233400     16.60589300   
   328       H         22.35621600      3.94266600      7.46410700   
   329       H         16.60589300     10.32121600      8.09233400   
   330       H          7.46410700     22.35621600      3.94266600   
   331       H          8.09233400     16.60589300     10.32121600   
   332       H         19.76628400     10.58839300     14.10983400   
   333       H          1.44660700      9.96016600      7.73128400   
   334       H          9.96016600      7.73128400      1.44660700   
   335       H         10.58839300     14.10983400     19.76628400   
   336       H          7.73128400      1.44660700      9.96016600   
   337       H         14.00392600     17.89845200     20.33674300   
   338       H         11.88095200     20.02142600      9.75075700   
   339       H          3.73325700      1.96892600     18.20654800   
   340       H         18.20654800      3.73325700      1.96892600   
   341       H         20.33674300     14.00392600     17.89845200   
   342       H         17.89845200     20.33674300     14.00392600   
   343       H          1.96892600     18.20654800      3.73325700   
   344       H         23.91595200     16.08357400     14.31924300   
   345       H          4.04857400     21.78575700      0.15404800   
   346       H          0.15404800      4.04857400     21.78575700   
   347       H         21.78575700      0.15404800      4.04857400   
   348       H         16.08357400     14.31924300     23.91595200   
   349       H         14.31924300     23.91595200     16.08357400   
   350       H          6.17154800      8.30174300     22.10107400   
   351       H         10.06607400      5.86345200     15.76825700   
   352       H         22.10107400      6.17154800      8.30174300   
   353       H         15.76825700     10.06607400      5.86345200   
   354       H          8.30174300     22.10107400      6.17154800   
   355       H          5.86345200     15.76825700     10.06607400   
   356       H         20.02142600      9.75075700     11.88095200   
   357       H          2.28424300     12.18904800      7.98642600   
   358       H         12.18904800      7.98642600      2.28424300   
   359       H          9.75075700     11.88095200     20.02142600   
   360       H          7.98642600      2.28424300     12.18904800   
   361      Tv         24.07000000      0.00000000      0.00000000   
   362      Tv          0.00000000     24.07000000      0.00000000   
   363      Tv          0.00000000      0.00000000     24.07000000   


                   THE SYSTEM IS A SOLID


                UNIT CELL TRANSLATION VECTORS

              X                Y              Z
    T1 =    24.0700000      0.0000000      0.0000000
    T2 =     0.0000000     24.0700000      0.0000000
    T3 =     0.0000000      0.0000000     24.0700000


          CARTESIAN COORDINATES 

    NO.       ATOM           X           Y           Z

     1         C         17.7661     14.4613     21.2297
     2         C          8.4438     23.7836      8.8578
     3         C          2.8403      5.7311     21.6437
     4         C         21.6437      2.8403      5.7311
     5         C         21.2297     17.7661     14.4613
     6         C         14.4613     21.2297     17.7661
     7         C          5.7311     21.6437      2.8403
     8         C         20.4788     12.3214     15.2122
     9         C          0.2864     20.8928      3.5912
    10         C          3.5912      0.2864     20.8928
    11         C         20.8928      3.5912      0.2864
    12         C         12.3214     15.2122     20.4788
    13         C         15.2122     20.4788     12.3214
    14         C          9.6087      9.1947     18.3389
    15         C          6.3039      2.4263     14.8753
    16         C         18.3389      9.6087      9.1947
    17         C         14.8753      6.3039      2.4263
    18         C          9.1947     18.3389      9.6087
    19         C          2.4263     14.8753      6.3039
    20         C         23.7836      8.8578      8.4438
    21         C          3.1772     15.6262     11.7486
    22         C         15.6262     11.7486      3.1772
    23         C          8.8578      8.4438     23.7836
    24         C         11.7486      3.1772     15.6262
    25         C         18.9407     14.6370     20.4210
    26         C          8.6195      0.8882      9.6665
    27         C          3.6490      6.9057     21.4680
    28         C         21.4680      3.6490      6.9057
    29         C         20.4210     18.9407     14.6370
    30         C         14.6370     20.4210     18.9407
    31         C          6.9057     21.4680      3.6490
    32         C         20.6545     11.1468     14.4035
    33         C         23.1818     21.7015      3.4155
    34         C          3.4155     23.1818     21.7015
    35         C         21.7015      3.4155     23.1818
    36         C         11.1468     14.4035     20.6545
    37         C         14.4035     20.6545     11.1468
    38         C          9.4330      8.3860     17.1643
    39         C          5.1293      2.6020     15.6840
    40         C         17.1643      9.4330      8.3860
    41         C         15.6840      5.1293      2.6020
    42         C          8.3860     17.1643      9.4330
    43         C          2.6020     15.6840      5.1293
    44         C          0.8882      9.6665      8.6195
    45         C          2.3685     15.4505     12.9232
    46         C         15.4505     12.9232      2.3685
    47         C          9.6665      8.6195      0.8882
    48         C         12.9232      2.3685     15.4505
    49         C         14.7934     17.3039     20.8133
    50         C         11.2864     20.8109      9.2742
    51         C          3.2567      2.7584     18.8011
    52         C         18.8011      3.2567      2.7584
    53         C         20.8133     14.7934     17.3039
    54         C         17.3039     20.8133     14.7934
    55         C          2.7584     18.8011      3.2567
    56         C         23.3214     15.2941     14.7958
    57         C          3.2591     21.3092      0.7486
    58         C          0.7486      3.2591     21.3092
    59         C         21.3092      0.7486      3.2591
    60         C         15.2941     14.7958     23.3214
    61         C         14.7958     23.3214     15.2941
    62         C          6.7661      8.7783     21.3116
    63         C          9.2766      5.2689     15.2917
    64         C         21.3116      6.7661      8.7783
    65         C         15.2917      9.2766      5.2689
    66         C          8.7783     21.3116      6.7661
    67         C          5.2689     15.2917      9.2766
    68         C         20.8109      9.2742     11.2864
    69         C          2.7608     12.7836      8.7759
    70         C         12.7836      8.7759      2.7608
    71         C          9.2742     11.2864     20.8109
    72         C          8.7759      2.7608     12.7836
    73         C         15.5588     15.3831     22.1420
    74         C          9.3656     21.5763      7.9455
    75         C          1.9280      3.5238     20.7219
    76         C         20.7219      1.9280      3.5238
    77         C         22.1420     15.5588     15.3831
    78         C         15.3831     22.1420     15.5588
    79         C          3.5238     20.7219      1.9280
    80         C         21.4006     14.5287     16.1245
    81         C          2.4937     19.9805      2.6694
    82         C          2.6694      2.4937     19.9805
    83         C         19.9805      2.6694      2.4937
    84         C         14.5287     16.1245     21.4006
    85         C         16.1245     21.4006     14.5287
    86         C          8.6869     10.1070     20.5462
    87         C          8.5112      3.3481     13.9630
    88         C         20.5462      8.6869     10.1070
    89         C         13.9630      8.5112      3.3481
    90         C         10.1070     20.5462      8.6869
    91         C          3.3481     13.9630      8.5112
    92         C         21.5763      7.9455      9.3656
    93         C          4.0895     14.7044      9.5413
    94         C         14.7044      9.5413      4.0895
    95         C          7.9455      9.3656     21.5763
    96         C          9.5413      4.0895     14.7044
    97         C         19.2175     19.9805     17.9851
    98         C         13.9630      1.1650     12.1024
    99         C          6.0849      7.1825     16.1245
   100         C         16.1245      6.0849      7.1825
   101         C         17.9851     19.2175     19.9805
   102         C         19.9805     17.9851     19.2175
   103         C          7.1825     16.1245      6.0849
   104         C          1.9280     10.8700     11.9676
   105         C         22.9050      0.0674     22.1420
   106         C         22.1420     22.9050      0.0674
   107         C          0.0674     22.1420     22.9050
   108         C         10.8700     11.9676      1.9280
   109         C         11.9676      1.9280     10.8700
   110         C          4.0895      5.9501     16.8875
   111         C          4.8525      7.9455     18.1199
   112         C         16.8875      4.0895      5.9501
   113         C         18.1199      4.8525      7.9455
   114         C          5.9501     16.8875      4.0895
   115         C          7.9455     18.1199      4.8525
   116         C          1.1650     12.1024     13.9630
   117         C         24.0026     10.1070     13.2000
   118         C         10.1070     13.2000     24.0026
   119         C         12.1024     13.9630      1.1650
   120         C         13.2000     24.0026     10.1070
   121         C         18.4569     16.9453     20.5630
   122         C         10.9278      0.4044      9.5245
   123         C          3.5070      6.4219     19.1597
   124         C         19.1597      3.5070      6.4219
   125         C         20.5630     18.4569     16.9453
   126         C         16.9453     20.5630     18.4569
   127         C          6.4219     19.1597      3.5070
   128         C         22.9628     11.6306     14.5455
   129         C         23.6656     21.5595      1.1072
   130         C          1.1072     23.6656     21.5595
   131         C         21.5595      1.1072     23.6656
   132         C         11.6306     14.5455     22.9628
   133         C         14.5455     22.9628     11.6306
   134         C          7.1247      8.5280     17.6481
   135         C          5.6131      4.9103     15.5420
   136         C         17.6481      7.1247      8.5280
   137         C         15.5420      5.6131      4.9103
   138         C          8.5280     17.6481      7.1247
   139         C          4.9103     15.5420      5.6131
   140         C          0.4044      9.5245     10.9278
   141         C          2.5105     13.1422     12.4394
   142         C         13.1422     12.4394      2.5105
   143         C          9.5245     10.9278      0.4044
   144         C         12.4394      2.5105     13.1422
   145         C         16.5481     19.0201     20.1899
   146         C         13.0026     22.5656      9.8976
   147         C          3.8801      4.5131     17.0849
   148         C         17.0849      3.8801      4.5131
   149         C         20.1899     16.5481     19.0201
   150         C         19.0201     20.1899     16.5481
   151         C          4.5131     17.0849      3.8801
   152         C          0.9676     13.5394     14.1724
   153         C          1.5044     21.9326     23.1024
   154         C         23.1024      1.5044     21.9326
   155         C         21.9326     23.1024      1.5044
   156         C         13.5394     14.1724      0.9676
   157         C         14.1724      0.9676     13.5394
   158         C          5.0499      8.1549     19.5569
   159         C          7.5219      6.9851     15.9151
   160         C         19.5569      5.0499      8.1549
   161         C         15.9151      7.5219      6.9851
   162         C          8.1549     19.5569      5.0499
   163         C          6.9851     15.9151      7.5219
   164         C         22.5656      9.8976     13.0026
   165         C          2.1374     11.0674     10.5306
   166         C         11.0674     10.5306      2.1374
   167         C          9.8976     13.0026     22.5656
   168         C         10.5306      2.1374     11.0674
   169         C         23.2251     21.9904     23.9087
   170         C         15.9729      5.1726      6.1788
   171         C          0.1613     11.1901     14.1146
   172         C         14.1146      0.1613     11.1901
   173         C         23.9087     23.2251     21.9904
   174         C         21.9904     23.9087     23.2251
   175         C         11.1901     14.1146      0.1613
   176         C          3.9379      6.8624     17.8912
   177         C         18.8974     18.2138     20.1321
   178         C         20.1321     18.8974     18.2138
   179         C         18.2138     20.1321     18.8974
   180         C          6.8624     17.8912      3.9379
   181         C         17.8912      3.9379      6.8624
   182         C          2.0796     11.8737     12.8799
   183         C          0.8449      9.9554     12.1963
   184         C         12.8799      2.0796     11.8737
   185         C         12.1963      0.8449      9.9554
   186         C         11.8737     12.8799      2.0796
   187         C          9.9554     12.1963      0.8449
   188         C          5.1726      6.1788     15.9729
   189         C          5.8562      8.0971     17.2076
   190         C          8.0971     17.2076      5.8562
   191         C          6.1788     15.9729      5.1726
   192         C         17.2076      5.8562      8.0971
   193         C         17.1667     16.7912     21.0083
   194         C         10.7737     23.1842      9.0792
   195         C          3.0617      5.1317     19.3138
   196         C         19.3138      3.0617      5.1317
   197         C         21.0083     17.1667     16.7912
   198         C         16.7912     21.0083     17.1667
   199         C          5.1317     19.3138      3.0617
   200         C         22.8087     12.9208     14.9908
   201         C          0.8858     21.1142      1.2613
   202         C          1.2613      0.8858     21.1142
   203         C         21.1142      1.2613      0.8858
   204         C         12.9208     14.9908     22.8087
   205         C         14.9908     22.8087     12.9208
   206         C          7.2788      8.9733     18.9383
   207         C          6.9033      4.7562     15.0967
   208         C         18.9383      7.2788      8.9733
   209         C         15.0967      6.9033      4.7562
   210         C          8.9733     18.9383      7.2788
   211         C          4.7562     15.0967      6.9033
   212         C         23.1842      9.0792     10.7737
   213         C          2.9558     13.2963     11.1492
   214         C         13.2963     11.1492      2.9558
   215         C          9.0792     10.7737     23.1842
   216         C         11.1492      2.9558     13.2963
   217         C         16.1630     17.8142     20.7291
   218         C         11.7967     22.1805      9.3584
   219         C          3.3409      4.1280     18.2908
   220         C         18.2908      3.3409      4.1280
   221         C         20.7291     16.1630     17.8142
   222         C         17.8142     20.7291     16.1630
   223         C          4.1280     18.2908      3.3409
   224         C         23.8317     13.9245     14.7116
   225         C          1.8895     21.3934      0.2383
   226         C          0.2383      1.8895     21.3934
   227         C         21.3934      0.2383      1.8895
   228         C         13.9245     14.7116     23.8317
   229         C         14.7116     23.8317     13.9245
   230         C          6.2558      8.6941     19.9420
   231         C          7.9070      5.7792     15.3759
   232         C         19.9420      6.2558      8.6941
   233         C         15.3759      7.9070      5.7792
   234         C          8.6941     19.9420      6.2558
   235         C          5.7792     15.3759      7.9070
   236         C         22.1805      9.3584     11.7967
   237         C          2.6766     12.2733     10.1455
   238         C         12.2733     10.1455      2.6766
   239         C          9.3584     11.7967     22.1805
   240         C         10.1455      2.6766     12.2733
   241         C         19.2993     15.8910     20.0335
   242         C          9.8735      1.2468     10.0540
   243         C          4.0365      7.2643     20.2140
   244         C         20.2140      4.0365      7.2643
   245         C         20.0335     19.2993     15.8910
   246         C         15.8910     20.0335     19.2993
   247         C          7.2643     20.2140      4.0365
   248         C         21.9085     10.7882     14.0160
   249         C         22.8232     22.0890      2.1615
   250         C          2.1615     22.8232     22.0890
   251         C         22.0890      2.1615     22.8232
   252         C         10.7882     14.0160     21.9085
   253         C         14.0160     21.9085     10.7882
   254         C          8.1790      7.9985     16.8057
   255         C          4.7707      3.8560     16.0715
   256         C         16.8057      8.1790      7.9985
   257         C         16.0715      4.7707      3.8560
   258         C          7.9985     16.8057      8.1790
   259         C          3.8560     16.0715      4.7707
   260         C          1.2468     10.0540      9.8735
   261         C          1.9810     14.1965     13.2818
   262         C         14.1965     13.2818      1.9810
   263         C         10.0540      9.8735      1.2468
   264         C         13.2818      1.9810     14.1965
   265         B         16.8803     15.4770     21.4873
   266         B          9.4595     22.8978      8.6002
   267         B          2.5827      4.8453     20.6280
   268         B         20.6280      2.5827      4.8453
   269         B         21.4873     16.8803     15.4770
   270         B         15.4770     21.4873     16.8803
   271         B          4.8453     20.6280      2.5827
   272         B         21.4945     13.2072     15.4698
   273         B          1.1722     20.6352      2.5755
   274         B          2.5755      1.1722     20.6352
   275         B         20.6352      2.5755      1.1722
   276         B         13.2072     15.4698     21.4945
   277         B         15.4698     21.4945     13.2072
   278         B          8.5930      9.4523     19.2247
   279         B          7.1897      3.4420     14.6177
   280         B         19.2247      8.5930      9.4523
   281         B         14.6177      7.1897      3.4420
   282         B          9.4523     19.2247      8.5930
   283         B          3.4420     14.6177      7.1897
   284         B         22.8978      8.6002      9.4595
   285         B          3.4348     14.6105     10.8628
   286         B         14.6105     10.8628      3.4348
   287         B          8.6002      9.4595     22.8978
   288         B         10.8628      3.4348     14.6105
   289         H         13.4503     21.5980     17.5518
   290         H         15.5805     19.4678     12.5357
   291         H          6.5182      1.4153     14.5070
   292         H         14.5070      6.5182      1.4153
   293         H         17.5518     13.4503     21.5980
   294         H         21.5980     17.5518     13.4503
   295         H          1.4153     14.5070      6.5182
   296         H          3.5455     16.6372     11.5343
   297         H          4.6022      0.5007     20.5245
   298         H         20.5245      4.6022      0.5007
   299         H          0.5007     20.5245      4.6022
   300         H         16.6372     11.5343      3.5455
   301         H         11.5343      3.5455     16.6372
   302         H          2.4720      5.5168     22.6547
   303         H         10.6197      9.5630     18.5532
   304         H         22.6547      2.4720      5.5168
   305         H         18.5532     10.6197      9.5630
   306         H          5.5168     22.6547      2.4720
   307         H          9.5630     18.5532     10.6197
   308         H         19.4678     12.5357     15.5805
   309         H         23.5693      8.4895      7.4328
   310         H          8.4895      7.4328     23.5693
   311         H         12.5357     15.5805     19.4678
   312         H          7.4328     23.5693      8.4895
   313         H         13.7488     20.1273     19.4991
   314         H         14.1098     19.7663     10.5884
   315         H          4.5709      1.7138     15.9777
   316         H         15.9777      4.5709      1.7138
   317         H         19.4991     13.7488     20.1273
   318         H         20.1273     19.4991     13.7488
   319         H          1.7138     15.9777      4.5709
   320         H          2.0748     16.3387     13.4816
   321         H          4.3037     22.6234     21.9952
   322         H         21.9952      4.3037     22.6234
   323         H         22.6234     21.9952      4.3037
   324         H         16.3387     13.4816      2.0748
   325         H         13.4816      2.0748     16.3387
   326         H          3.9427      7.4641     22.3562
   327         H         10.3212      8.0923     16.6059
   328         H         22.3562      3.9427      7.4641
   329         H         16.6059     10.3212      8.0923
   330         H          7.4641     22.3562      3.9427
   331         H          8.0923     16.6059     10.3212
   332         H         19.7663     10.5884     14.1098
   333         H          1.4466      9.9602      7.7313
   334         H          9.9602      7.7313      1.4466
   335         H         10.5884     14.1098     19.7663
   336         H          7.7313      1.4466      9.9602
   337         H         14.0039     17.8985     20.3367
   338         H         11.8810     20.0214      9.7508
   339         H          3.7333      1.9689     18.2065
   340         H         18.2065      3.7333      1.9689
   341         H         20.3367     14.0039     17.8985
   342         H         17.8985     20.3367     14.0039
   343         H          1.9689     18.2065      3.7333
   344         H         23.9160     16.0836     14.3192
   345         H          4.0486     21.7858      0.1540
   346         H          0.1540      4.0486     21.7858
   347         H         21.7858      0.1540      4.0486
   348         H         16.0836     14.3192     23.9160
   349         H         14.3192     23.9160     16.0836
   350         H          6.1715      8.3017     22.1011
   351         H         10.0661      5.8635     15.7683
   352         H         22.1011      6.1715      8.3017
   353         H         15.7683     10.0661      5.8635
   354         H          8.3017     22.1011      6.1715
   355         H          5.8635     15.7683     10.0661
   356         H         20.0214      9.7508     11.8810
   357         H          2.2842     12.1890      7.9864
   358         H         12.1890      7.9864      2.2842
   359         H          9.7508     11.8810     20.0214
   360         H          7.9864      2.2842     12.1890

 General Reference for PM7:
 "Optimization of Parameters for Semiempirical Methods VI: More Modifications to the 
 NDDO Approximations and Re-optimization of Parameters", J. J. P. Stewart, J. Mol. Mod., 1:32, 19 (2013)
 https://link.springer.com/article/10.1007/s00894-012-1667-x

           Empirical Formula: C264 H72 B24  =   360 atoms



      RHF CALCULATION, NO. OF DOUBLY OCCUPIED LEVELS = 600


 -------------------------------------------------------------------------------
 PM7 CHARGE=0 NOOPT




     NO PARAMETERS MARKED FOR OPTIMIZATION, SO 1SCF WAS USED  
     SCF FIELD WAS ACHIEVED                                   


                              PM7 CALCULATION
                                                       MOPAC v22.1.0 Linux
                                                       Wed Jan 31 16:51:02 2024




          FINAL HEAT OF FORMATION =       3245.20059 KCAL/MOL =   13577.91926 KJ/MOL
          H.o.F. per unit cell    =        135.21669 KCAL, for 24 unit cells, unit cell = C11 H3 B1



          IONIZATION POTENTIAL    =          8.361120 EV
          HOMO LUMO ENERGIES (EV) =         -8.361 -4.985
          NO. OF FILLED LEVELS    =        600
          MOLECULAR WEIGHT        =       3502.9128

                   THE SYSTEM IS A SOLID


                UNIT CELL TRANSLATION VECTORS

              X                Y              Z
    T1 =    24.0700000      0.0000000      0.0000000
    T2 =     0.0000000     24.0700000      0.0000000
    T3 =     0.0000000      0.0000000     24.0700000

          VOLUME OF UNIT CELL     =      13945.313 CUBIC ANGSTROMS

          DENSITY                 =          0.417 GRAMS/CC
                              A   =         24.070 ANGSTROMS
                              B   =         24.070 ANGSTROMS
                              C   =         24.070 ANGSTROMS
                            ALPHA =         90.000 DEGREES
                            BETA  =         90.000 DEGREES
                            GAMMA =         90.000 DEGREES



          SCF CALCULATIONS        =          1

          WALL-CLOCK TIME         =          2 MINUTES AND 49.520 SECONDS
          COMPUTATION TIME        =          2 MINUTES AND 49.507 SECONDS




   ATOM   CHEMICAL          X               Y               Z
  NUMBER   SYMBOL      (ANGSTROMS)     (ANGSTROMS)     (ANGSTROMS)

     1       C         17.76606700     14.46125600     21.22974000   
     2       C          8.44375600     23.78356700      8.85776000   
     3       C          2.84026000      5.73106700     21.64374400   
     4       C         21.64374400      2.84026000      5.73106700   
     5       C         21.22974000     17.76606700     14.46125600   
     6       C         14.46125600     21.22974000     17.76606700   
     7       C          5.73106700     21.64374400      2.84026000   
     8       C         20.47875600     12.32143300     15.21224000   
     9       C          0.28643300     20.89276000      3.59124400   
    10       C          3.59124400      0.28643300     20.89276000   
    11       C         20.89276000      3.59124400      0.28643300   
    12       C         12.32143300     15.21224000     20.47875600   
    13       C         15.21224000     20.47875600     12.32143300   
    14       C          9.60874400      9.19474000     18.33893300   
    15       C          6.30393300      2.42625600     14.87526000   
    16       C         18.33893300      9.60874400      9.19474000   
    17       C         14.87526000      6.30393300      2.42625600   
    18       C          9.19474000     18.33893300      9.60874400   
    19       C          2.42625600     14.87526000      6.30393300   
    20       C         23.78356700      8.85776000      8.44375600   
    21       C          3.17724000     15.62624400     11.74856700   
    22       C         15.62624400     11.74856700      3.17724000   
    23       C          8.85776000      8.44375600     23.78356700   
    24       C         11.74856700      3.17724000     15.62624400   
    25       C         18.94068300     14.63696700     20.42098800   
    26       C          8.61946700      0.88818300      9.66651200   
    27       C          3.64901200      6.90568300     21.46803300   
    28       C         21.46803300      3.64901200      6.90568300   
    29       C         20.42098800     18.94068300     14.63696700   
    30       C         14.63696700     20.42098800     18.94068300   
    31       C          6.90568300     21.46803300      3.64901200   
    32       C         20.65446700     11.14681700     14.40348800   
    33       C         23.18181700     21.70151200      3.41553300   
    34       C          3.41553300     23.18181700     21.70151200   
    35       C         21.70151200      3.41553300     23.18181700   
    36       C         11.14681700     14.40348800     20.65446700   
    37       C         14.40348800     20.65446700     11.14681700   
    38       C          9.43303300      8.38598800     17.16431700   
    39       C          5.12931700      2.60196700     15.68401200   
    40       C         17.16431700      9.43303300      8.38598800   
    41       C         15.68401200      5.12931700      2.60196700   
    42       C          8.38598800     17.16431700      9.43303300   
    43       C          2.60196700     15.68401200      5.12931700   
    44       C          0.88818300      9.66651200      8.61946700   
    45       C          2.36848800     15.45053300     12.92318300   
    46       C         15.45053300     12.92318300      2.36848800   
    47       C          9.66651200      8.61946700      0.88818300   
    48       C         12.92318300      2.36848800     15.45053300   
    49       C         14.79342200     17.30392300     20.81332900   
    50       C         11.28642300     20.81092200      9.27417100   
    51       C          3.25667100      2.75842200     18.80107700   
    52       C         18.80107700      3.25667100      2.75842200   
    53       C         20.81332900     14.79342200     17.30392300   
    54       C         17.30392300     20.81332900     14.79342200   
    55       C          2.75842200     18.80107700      3.25667100   
    56       C         23.32142300     15.29407800     14.79582900   
    57       C          3.25907800     21.30917100      0.74857700   
    58       C          0.74857700      3.25907800     21.30917100   
    59       C         21.30917100      0.74857700      3.25907800   
    60       C         15.29407800     14.79582900     23.32142300   
    61       C         14.79582900     23.32142300     15.29407800   
    62       C          6.76607700      8.77832900     21.31157800   
    63       C          9.27657800      5.26892300     15.29167100   
    64       C         21.31157800      6.76607700      8.77832900   
    65       C         15.29167100      9.27657800      5.26892300   
    66       C          8.77832900     21.31157800      6.76607700   
    67       C          5.26892300     15.29167100      9.27657800   
    68       C         20.81092200      9.27417100     11.28642300   
    69       C          2.76082900     12.78357700      8.77592200   
    70       C         12.78357700      8.77592200      2.76082900   
    71       C          9.27417100     11.28642300     20.81092200   
    72       C          8.77592200      2.76082900     12.78357700   
    73       C         15.55884800     15.38313700     22.14199300   
    74       C          9.36563700     21.57634800      7.94550700   
    75       C          1.92800700      3.52384800     20.72186300   
    76       C         20.72186300      1.92800700      3.52384800   
    77       C         22.14199300     15.55884800     15.38313700   
    78       C         15.38313700     22.14199300     15.55884800   
    79       C          3.52384800     20.72186300      1.92800700   
    80       C         21.40063700     14.52865200     16.12449300   
    81       C          2.49365200     19.98050700      2.66936300   
    82       C          2.66936300      2.49365200     19.98050700   
    83       C         19.98050700      2.66936300      2.49365200   
    84       C         14.52865200     16.12449300     21.40063700   
    85       C         16.12449300     21.40063700     14.52865200   
    86       C          8.68686300     10.10699300     20.54615200   
    87       C          8.51115200      3.34813700     13.96300700   
    88       C         20.54615200      8.68686300     10.10699300   
    89       C         13.96300700      8.51115200      3.34813700   
    90       C         10.10699300     20.54615200      8.68686300   
    91       C          3.34813700     13.96300700      8.51115200   
    92       C         21.57634800      7.94550700      9.36563700   
    93       C          4.08949300     14.70436300      9.54134800   
    94       C         14.70436300      9.54134800      4.08949300   
    95       C          7.94550700      9.36563700     21.57634800   
    96       C          9.54134800      4.08949300     14.70436300   
    97       C         19.21748800     19.98050700     17.98510400   
    98       C         13.96300700      1.16498800     12.10239600   
    99       C          6.08489600      7.18248800     16.12449300   
   100       C         16.12449300      6.08489600      7.18248800   
   101       C         17.98510400     19.21748800     19.98050700   
   102       C         19.98050700     17.98510400     19.21748800   
   103       C          7.18248800     16.12449300      6.08489600   
   104       C          1.92800700     10.87001200     11.96760400   
   105       C         22.90501200      0.06739600     22.14199300   
   106       C         22.14199300     22.90501200      0.06739600   
   107       C          0.06739600     22.14199300     22.90501200   
   108       C         10.87001200     11.96760400      1.92800700   
   109       C         11.96760400      1.92800700     10.87001200   
   110       C          4.08949300      5.95010400     16.88751200   
   111       C          4.85251200      7.94550700     18.11989600   
   112       C         16.88751200      4.08949300      5.95010400   
   113       C         18.11989600      4.85251200      7.94550700   
   114       C          5.95010400     16.88751200      4.08949300   
   115       C          7.94550700     18.11989600      4.85251200   
   116       C          1.16498800     12.10239600     13.96300700   
   117       C         24.00260400     10.10699300     13.19998800   
   118       C         10.10699300     13.19998800     24.00260400   
   119       C         12.10239600     13.96300700      1.16498800   
   120       C         13.19998800     24.00260400     10.10699300   
   121       C         18.45687600     16.94528000     20.56300100   
   122       C         10.92778000      0.40437600      9.52449900   
   123       C          3.50699900      6.42187600     19.15972000   
   124       C         19.15972000      3.50699900      6.42187600   
   125       C         20.56300100     18.45687600     16.94528000   
   126       C         16.94528000     20.56300100     18.45687600   
   127       C          6.42187600     19.15972000      3.50699900   
   128       C         22.96278000     11.63062400     14.54550100   
   129       C         23.66562400     21.55949900      1.10722000   
   130       C          1.10722000     23.66562400     21.55949900   
   131       C         21.55949900      1.10722000     23.66562400   
   132       C         11.63062400     14.54550100     22.96278000   
   133       C         14.54550100     22.96278000     11.63062400   
   134       C          7.12472000      8.52800100     17.64812400   
   135       C          5.61312400      4.91028000     15.54199900   
   136       C         17.64812400      7.12472000      8.52800100   
   137       C         15.54199900      5.61312400      4.91028000   
   138       C          8.52800100     17.64812400      7.12472000   
   139       C          4.91028000     15.54199900      5.61312400   
   140       C          0.40437600      9.52449900     10.92778000   
   141       C          2.51050100     13.14222000     12.43937600   
   142       C         13.14222000     12.43937600      2.51050100   
   143       C          9.52449900     10.92778000      0.40437600   
   144       C         12.43937600      2.51050100     13.14222000   
   145       C         16.54812500     19.02011400     20.18991600   
   146       C         13.00261400     22.56562500      9.89758400   
   147       C          3.88008400      4.51312500     17.08488600   
   148       C         17.08488600      3.88008400      4.51312500   
   149       C         20.18991600     16.54812500     19.02011400   
   150       C         19.02011400     20.18991600     16.54812500   
   151       C          4.51312500     17.08488600      3.88008400   
   152       C          0.96761400     13.53937500     14.17241600   
   153       C          1.50437500     21.93258400     23.10238600   
   154       C         23.10238600      1.50437500     21.93258400   
   155       C         21.93258400     23.10238600      1.50437500   
   156       C         13.53937500     14.17241600      0.96761400   
   157       C         14.17241600      0.96761400     13.53937500   
   158       C          5.04988600      8.15491600     19.55687500   
   159       C          7.52187500      6.98511400     15.91508400   
   160       C         19.55687500      5.04988600      8.15491600   
   161       C         15.91508400      7.52187500      6.98511400   
   162       C          8.15491600     19.55687500      5.04988600   
   163       C          6.98511400     15.91508400      7.52187500   
   164       C         22.56562500      9.89758400     13.00261400   
   165       C          2.13741600     11.06738600     10.53062500   
   166       C         11.06738600     10.53062500      2.13741600   
   167       C          9.89758400     13.00261400     22.56562500   
   168       C         10.53062500      2.13741600     11.06738600   
   169       C         23.22514300     21.99035200     23.90873100   
   170       C         15.97285200      5.17264300      6.17876900   
   171       C          0.16126900     11.19014300     14.11464800   
   172       C         14.11464800      0.16126900     11.19014300   
   173       C         23.90873100     23.22514300     21.99035200   
   174       C         21.99035200     23.90873100     23.22514300   
   175       C         11.19014300     14.11464800      0.16126900   
   176       C          3.93785200      6.86235700     17.89123100   
   177       C         18.89735700     18.21376900     20.13214800   
   178       C         20.13214800     18.89735700     18.21376900   
   179       C         18.21376900     20.13214800     18.89735700   
   180       C          6.86235700     17.89123100      3.93785200   
   181       C         17.89123100      3.93785200      6.86235700   
   182       C          2.07964800     11.87373100     12.87985700   
   183       C          0.84485700      9.95535200     12.19626900   
   184       C         12.87985700      2.07964800     11.87373100   
   185       C         12.19626900      0.84485700      9.95535200   
   186       C         11.87373100     12.87985700      2.07964800   
   187       C          9.95535200     12.19626900      0.84485700   
   188       C          5.17264300      6.17876900     15.97285200   
   189       C          5.85623100      8.09714800     17.20764300   
   190       C          8.09714800     17.20764300      5.85623100   
   191       C          6.17876900     15.97285200      5.17264300   
   192       C         17.20764300      5.85623100      8.09714800   
   193       C         17.16672400     16.79123200     21.00829600   
   194       C         10.77373200     23.18422400      9.07920400   
   195       C          3.06170400      5.13172400     19.31376800   
   196       C         19.31376800      3.06170400      5.13172400   
   197       C         21.00829600     17.16672400     16.79123200   
   198       C         16.79123200     21.00829600     17.16672400   
   199       C          5.13172400     19.31376800      3.06170400   
   200       C         22.80873200     12.92077600     14.99079600   
   201       C          0.88577600     21.11420400      1.26126800   
   202       C          1.26126800      0.88577600     21.11420400   
   203       C         21.11420400      1.26126800      0.88577600   
   204       C         12.92077600     14.99079600     22.80873200   
   205       C         14.99079600     22.80873200     12.92077600   
   206       C          7.27876800      8.97329600     18.93827600   
   207       C          6.90327600      4.75623200     15.09670400   
   208       C         18.93827600      7.27876800      8.97329600   
   209       C         15.09670400      6.90327600      4.75623200   
   210       C          8.97329600     18.93827600      7.27876800   
   211       C          4.75623200     15.09670400      6.90327600   
   212       C         23.18422400      9.07920400     10.77373200   
   213       C          2.95579600     13.29626800     11.14922400   
   214       C         13.29626800     11.14922400      2.95579600   
   215       C          9.07920400     10.77373200     23.18422400   
   216       C         11.14922400      2.95579600     13.29626800   
   217       C         16.16300500     17.81420700     20.72908400   
   218       C         11.79670700     22.18050500      9.35841600   
   219       C          3.34091600      4.12800500     18.29079300   
   220       C         18.29079300      3.34091600      4.12800500   
   221       C         20.72908400     16.16300500     17.81420700   
   222       C         17.81420700     20.72908400     16.16300500   
   223       C          4.12800500     18.29079300      3.34091600   
   224       C         23.83170700     13.92449500     14.71158400   
   225       C          1.88949500     21.39341600      0.23829300   
   226       C          0.23829300      1.88949500     21.39341600   
   227       C         21.39341600      0.23829300      1.88949500   
   228       C         13.92449500     14.71158400     23.83170700   
   229       C         14.71158400     23.83170700     13.92449500   
   230       C          6.25579300      8.69408400     19.94199500   
   231       C          7.90699500      5.77920700     15.37591600   
   232       C         19.94199500      6.25579300      8.69408400   
   233       C         15.37591600      7.90699500      5.77920700   
   234       C          8.69408400     19.94199500      6.25579300   
   235       C          5.77920700     15.37591600      7.90699500   
   236       C         22.18050500      9.35841600     11.79670700   
   237       C          2.67658400     12.27329300     10.14550500   
   238       C         12.27329300     10.14550500      2.67658400   
   239       C          9.35841600     11.79670700     22.18050500   
   240       C         10.14550500      2.67658400     12.27329300   
   241       C         19.29932600     15.89101400     20.03346100   
   242       C          9.87351400      1.24682600     10.05403900   
   243       C          4.03653900      7.26432600     20.21398600   
   244       C         20.21398600      4.03653900      7.26432600   
   245       C         20.03346100     19.29932600     15.89101400   
   246       C         15.89101400     20.03346100     19.29932600   
   247       C          7.26432600     20.21398600      4.03653900   
   248       C         21.90851400     10.78817400     14.01596100   
   249       C         22.82317400     22.08903900      2.16148600   
   250       C          2.16148600     22.82317400     22.08903900   
   251       C         22.08903900      2.16148600     22.82317400   
   252       C         10.78817400     14.01596100     21.90851400   
   253       C         14.01596100     21.90851400     10.78817400   
   254       C          8.17898600      7.99846100     16.80567400   
   255       C          4.77067400      3.85601400     16.07153900   
   256       C         16.80567400      8.17898600      7.99846100   
   257       C         16.07153900      4.77067400      3.85601400   
   258       C          7.99846100     16.80567400      8.17898600   
   259       C          3.85601400     16.07153900      4.77067400   
   260       C          1.24682600     10.05403900      9.87351400   
   261       C          1.98096100     14.19648600     13.28182600   
   262       C         14.19648600     13.28182600      1.98096100   
   263       C         10.05403900      9.87351400      1.24682600   
   264       C         13.28182600      1.98096100     14.19648600   
   265       B         16.88029100     15.47701000     21.48728900   
   266       B          9.45951000     22.89779100      8.60021100   
   267       B          2.58271100      4.84529100     20.62799000   
   268       B         20.62799000      2.58271100      4.84529100   
   269       B         21.48728900     16.88029100     15.47701000   
   270       B         15.47701000     21.48728900     16.88029100   
   271       B          4.84529100     20.62799000      2.58271100   
   272       B         21.49451000     13.20720900     15.46978900   
   273       B          1.17220900     20.63521100      2.57549000   
   274       B          2.57549000      1.17220900     20.63521100   
   275       B         20.63521100      2.57549000      1.17220900   
   276       B         13.20720900     15.46978900     21.49451000   
   277       B         15.46978900     21.49451000     13.20720900   
   278       B          8.59299000      9.45228900     19.22470900   
   279       B          7.18970900      3.44201000     14.61771100   
   280       B         19.22470900      8.59299000      9.45228900   
   281       B         14.61771100      7.18970900      3.44201000   
   282       B          9.45228900     19.22470900      8.59299000   
   283       B          3.44201000     14.61771100      7.18970900   
   284       B         22.89779100      8.60021100      9.45951000   
   285       B          3.43478900     14.61049000     10.86279100   
   286       B         14.61049000     10.86279100      3.43478900   
   287       B          8.60021100      9.45951000     22.89779100   
   288       B         10.86279100      3.43478900     14.61049000   
   289       H         13.45031600     21.59801100     17.55184400   
   290       H         15.58051100     19.46781600     12.53565600   
   291       H          6.51815600      1.41531600     14.50698900   
   292       H         14.50698900      6.51815600      1.41531600   
   293       H         17.55184400     13.45031600     21.59801100   
   294       H         21.59801100     17.55184400     13.45031600   
   295       H          1.41531600     14.50698900      6.51815600   
   296       H          3.54551100     16.63718400     11.53434400   
   297       H          4.60218400      0.50065600     20.52448900   
   298       H         20.52448900      4.60218400      0.50065600   
   299       H          0.50065600     20.52448900      4.60218400   
   300       H         16.63718400     11.53434400      3.54551100   
   301       H         11.53434400      3.54551100     16.63718400   
   302       H          2.47198900      5.51684400     22.65468400   
   303       H         10.61968400      9.56301100     18.55315600   
   304       H         22.65468400      2.47198900      5.51684400   
   305       H         18.55315600     10.61968400      9.56301100   
   306       H          5.51684400     22.65468400      2.47198900   
   307       H          9.56301100     18.55315600     10.61968400   
   308       H         19.46781600     12.53565600     15.58051100   
   309       H         23.56934400      8.48948900      7.43281600   
   310       H          8.48948900      7.43281600     23.56934400   
   311       H         12.53565600     15.58051100     19.46781600   
   312       H          7.43281600     23.56934400      8.48948900   
   313       H         13.74878400     20.12733400     19.49910700   
   314       H         14.10983400     19.76628400     10.58839300   
   315       H          4.57089300      1.71378400     15.97766600   
   316       H         15.97766600      4.57089300      1.71378400   
   317       H         19.49910700     13.74878400     20.12733400   
   318       H         20.12733400     19.49910700     13.74878400   
   319       H          1.71378400     15.97766600      4.57089300   
   320       H          2.07483400     16.33871600     13.48160700   
   321       H          4.30371600     22.62339300     21.99516600   
   322       H         21.99516600      4.30371600     22.62339300   
   323       H         22.62339300     21.99516600      4.30371600   
   324       H         16.33871600     13.48160700      2.07483400   
   325       H         13.48160700      2.07483400     16.33871600   
   326       H          3.94266600      7.46410700     22.35621600   
   327       H         10.32121600      8.09233400     16.60589300   
   328       H         22.35621600      3.94266600      7.46410700   
   329       H         16.60589300     10.32121600      8.09233400   
   330       H          7.46410700     22.35621600      3.94266600   
   331       H          8.09233400     16.60589300     10.32121600   
   332       H         19.76628400     10.58839300     14.10983400   
   333       H          1.44660700      9.96016600      7.73128400   
   334       H          9.96016600      7.73128400      1.44660700   
   335       H         10.58839300     14.10983400     19.76628400   
   336       H          7.73128400      1.44660700      9.96016600   
   337       H         14.00392600     17.89845200     20.33674300   
   338       H         11.88095200     20.02142600      9.75075700   
   339       H          3.73325700      1.96892600     18.20654800   
   340       H         18.20654800      3.73325700      1.96892600   
   341       H         20.33674300     14.00392600     17.89845200   
   342       H         17.89845200     20.33674300     14.00392600   
   343       H          1.96892600     18.20654800      3.73325700   
   344       H         23.91595200     16.08357400     14.31924300   
   345       H          4.04857400     21.78575700      0.15404800   
   346       H          0.15404800      4.04857400     21.78575700   
   347       H         21.78575700      0.15404800      4.04857400   
   348       H         16.08357400     14.31924300     23.91595200   
   349       H         14.31924300     23.91595200     16.08357400   
   350       H          6.17154800      8.30174300     22.10107400   
   351       H         10.06607400      5.86345200     15.76825700   
   352       H         22.10107400      6.17154800      8.30174300   
   353       H         15.76825700     10.06607400      5.86345200   
   354       H          8.30174300     22.10107400      6.17154800   
   355       H          5.86345200     15.76825700     10.06607400   
   356       H         20.02142600      9.75075700     11.88095200   
   357       H          2.28424300     12.18904800      7.98642600   
   358       H         12.18904800      7.98642600      2.28424300   
   359       H          9.75075700     11.88095200     20.02142600   
   360       H          7.98642600      2.28424300     12.18904800   
   361      Tv         24.07000000      0.00000000      0.00000000   
   362      Tv          0.00000000     24.07000000      0.00000000   
   363      Tv          0.00000000      0.00000000     24.07000000   

                             CARTESIAN COORDINATES

   1    C       17.766067000    14.461256000    21.229740000
   2    C        8.443756000    23.783567000     8.857760000
   3    C        2.840260000     5.731067000    21.643744000
   4    C       21.643744000     2.840260000     5.731067000
   5    C       21.229740000    17.766067000    14.461256000
   6    C       14.461256000    21.229740000    17.766067000
   7    C        5.731067000    21.643744000     2.840260000
   8    C       20.478756000    12.321433000    15.212240000
   9    C        0.286433000    20.892760000     3.591244000
  10    C        3.591244000     0.286433000    20.892760000
  11    C       20.892760000     3.591244000     0.286433000
  12    C       12.321433000    15.212240000    20.478756000
  13    C       15.212240000    20.478756000    12.321433000
  14    C        9.608744000     9.194740000    18.338933000
  15    C        6.303933000     2.426256000    14.875260000
  16    C       18.338933000     9.608744000     9.194740000
  17    C       14.875260000     6.303933000     2.426256000
  18    C        9.194740000    18.338933000     9.608744000
  19    C        2.426256000    14.875260000     6.303933000
  20    C       23.783567000     8.857760000     8.443756000
  21    C        3.177240000    15.626244000    11.748567000
  22    C       15.626244000    11.748567000     3.177240000
  23    C        8.857760000     8.443756000    23.783567000
  24    C       11.748567000     3.177240000    15.626244000
  25    C       18.940683000    14.636967000    20.420988000
  26    C        8.619467000     0.888183000     9.666512000
  27    C        3.649012000     6.905683000    21.468033000
  28    C       21.468033000     3.649012000     6.905683000
  29    C       20.420988000    18.940683000    14.636967000
  30    C       14.636967000    20.420988000    18.940683000
  31    C        6.905683000    21.468033000     3.649012000
  32    C       20.654467000    11.146817000    14.403488000
  33    C       23.181817000    21.701512000     3.415533000
  34    C        3.415533000    23.181817000    21.701512000
  35    C       21.701512000     3.415533000    23.181817000
  36    C       11.146817000    14.403488000    20.654467000
  37    C       14.403488000    20.654467000    11.146817000
  38    C        9.433033000     8.385988000    17.164317000
  39    C        5.129317000     2.601967000    15.684012000
  40    C       17.164317000     9.433033000     8.385988000
  41    C       15.684012000     5.129317000     2.601967000
  42    C        8.385988000    17.164317000     9.433033000
  43    C        2.601967000    15.684012000     5.129317000
  44    C        0.888183000     9.666512000     8.619467000
  45    C        2.368488000    15.450533000    12.923183000
  46    C       15.450533000    12.923183000     2.368488000
  47    C        9.666512000     8.619467000     0.888183000
  48    C       12.923183000     2.368488000    15.450533000
  49    C       14.793422000    17.303923000    20.813329000
  50    C       11.286423000    20.810922000     9.274171000
  51    C        3.256671000     2.758422000    18.801077000
  52    C       18.801077000     3.256671000     2.758422000
  53    C       20.813329000    14.793422000    17.303923000
  54    C       17.303923000    20.813329000    14.793422000
  55    C        2.758422000    18.801077000     3.256671000
  56    C       23.321423000    15.294078000    14.795829000
  57    C        3.259078000    21.309171000     0.748577000
  58    C        0.748577000     3.259078000    21.309171000
  59    C       21.309171000     0.748577000     3.259078000
  60    C       15.294078000    14.795829000    23.321423000
  61    C       14.795829000    23.321423000    15.294078000
  62    C        6.766077000     8.778329000    21.311578000
  63    C        9.276578000     5.268923000    15.291671000
  64    C       21.311578000     6.766077000     8.778329000
  65    C       15.291671000     9.276578000     5.268923000
  66    C        8.778329000    21.311578000     6.766077000
  67    C        5.268923000    15.291671000     9.276578000
  68    C       20.810922000     9.274171000    11.286423000
  69    C        2.760829000    12.783577000     8.775922000
  70    C       12.783577000     8.775922000     2.760829000
  71    C        9.274171000    11.286423000    20.810922000
  72    C        8.775922000     2.760829000    12.783577000
  73    C       15.558848000    15.383137000    22.141993000
[...]
  293          H           0.127801        0.8722     0.87220
  294          H           0.127724        0.8723     0.87228
  295          H           0.132338        0.8677     0.86766
  296          H           0.132169        0.8678     0.86783
  297          H           0.127691        0.8723     0.87231
  298          H           0.127767        0.8722     0.87223
  299          H           0.127781        0.8722     0.87222
  300          H           0.132298        0.8677     0.86770
  301          H           0.132294        0.8677     0.86771
  302          H           0.128245        0.8718     0.87176
  303          H           0.150384        0.8496     0.84962
  304          H           0.128186        0.8718     0.87181
  305          H           0.150399        0.8496     0.84960
  306          H           0.128294        0.8717     0.87171
  307          H           0.150410        0.8496     0.84959
  308          H           0.128185        0.8718     0.87182
  309          H           0.150389        0.8496     0.84961
  310          H           0.150412        0.8496     0.84959
  311          H           0.128252        0.8717     0.87175
  312          H           0.150392        0.8496     0.84961
  313          H           0.151182        0.8488     0.84882
  314          H           0.149951        0.8500     0.85005
  315          H           0.149329        0.8507     0.85067
  316          H           0.149369        0.8506     0.85063
  317          H           0.151136        0.8489     0.84886
  318          H           0.151268        0.8487     0.84873
  319          H           0.149398        0.8506     0.85060
  320          H           0.149341        0.8507     0.85066
  321          H           0.151242        0.8488     0.84876
  322          H           0.151228        0.8488     0.84877
  323          H           0.151117        0.8489     0.84888
  324          H           0.149404        0.8506     0.85060
  325          H           0.149351        0.8506     0.85065
  326          H           0.149875        0.8501     0.85013
  327          H           0.179002        0.8210     0.82100
  328          H           0.149958        0.8500     0.85004
  329          H           0.178964        0.8210     0.82104
  330          H           0.150084        0.8499     0.84992
  331          H           0.178926        0.8211     0.82107
  332          H           0.149881        0.8501     0.85012
  333          H           0.179000        0.8210     0.82100
  334          H           0.178918        0.8211     0.82108
  335          H           0.150086        0.8499     0.84991
  336          H           0.178974        0.8210     0.82103
  337          H           0.166891        0.8331     0.83311
  338          H           0.166034        0.8340     0.83397
  339          H           0.168621        0.8314     0.83138
  340          H           0.168581        0.8314     0.83142
  341          H           0.166991        0.8330     0.83301
  342          H           0.166903        0.8331     0.83310
  343          H           0.168738        0.8313     0.83126
  344          H           0.168555        0.8314     0.83144
  345          H           0.166864        0.8331     0.83314
  346          H           0.166952        0.8330     0.83305
  347          H           0.166969        0.8330     0.83303
  348          H           0.168692        0.8313     0.83131
  349          H           0.168692        0.8313     0.83131
  350          H           0.166039        0.8340     0.83396
  351          H           0.170256        0.8297     0.82974
  352          H           0.166000        0.8340     0.83400
  353          H           0.170249        0.8298     0.82975
  354          H           0.166007        0.8340     0.83399
  355          H           0.170357        0.8296     0.82964
  356          H           0.166019        0.8340     0.83398
  357          H           0.170219        0.8298     0.82978
  358          H           0.170333        0.8297     0.82967
  359          H           0.165993        0.8340     0.83401
  360          H           0.170309        0.8297     0.82969


          ATOMIC ORBITAL ELECTRON POPULATIONS

     Atom    s        px        py        pz   
    1  C   1.12291   0.92605   1.12297   0.86758
    2  C   1.12317   1.13212   0.94934   0.86585
    3  C   1.12686   0.84431   0.91573   1.12256
    4  C   1.12703   1.12253   0.84347   0.91544
    5  C   1.12319   0.86598   0.92548   1.12282
    6  C   1.12312   1.12290   0.86647   0.92566
    7  C   1.12705   0.91541   1.12251   0.84327
    8  C   1.12694   1.12255   0.91558   0.84394
    9  C   1.12292   0.92604   0.86754   1.12298
   10  C   1.12323   1.12284   0.92544   0.86585
   11  C   1.12307   0.86664   1.12287   0.92571
   12  C   1.12710   0.91532   0.84304   1.12251
   13  C   1.12689   0.84408   1.12254   0.91567
   14  C   1.12324   1.13210   0.86545   0.94922
   15  C   1.10808   0.95766   1.12456   0.93872
   16  C   1.12321   0.94927   1.13212   0.86561
   17  C   1.10809   0.93858   0.95762   1.12450
   18  C   1.12308   0.86629   0.94946   1.13214
   19  C   1.10797   1.12460   0.93924   0.95788
   20  C   1.12327   0.94918   0.86529   1.13210
   21  C   1.10812   0.93845   1.12450   0.95756
   22  C   1.10800   1.12456   0.95781   0.93905
   23  C   1.12309   0.86621   1.13214   0.94944
   24  C   1.10802   0.95779   0.93903   1.12460
   25  C   1.08802   1.01403   1.03165   1.00442
   26  C   1.09257   1.05157   1.03246   1.01008
   27  C   1.08511   1.03008   1.02871   1.03373
   28  C   1.08503   1.03387   1.03073   1.02909
   29  C   1.08784   1.00594   1.01479   1.03190
   30  C   1.08789   1.03182   1.00549   1.01458
   31  C   1.08500   1.02923   1.03393   1.03105
   32  C   1.08507   1.03378   1.02886   1.03031
   33  C   1.08801   1.01406   1.00446   1.03166
   34  C   1.08782   1.03192   1.01487   1.00607
   35  C   1.08791   1.00531   1.03180   1.01447
   36  C   1.08498   1.02932   1.03120   1.03396
   37  C   1.08508   1.03035   1.03378   1.02885
   38  C   1.09254   1.05165   1.01036   1.03262
   39  C   1.09354   0.98637   1.02285   0.95475
   40  C   1.09254   1.03258   1.05158   1.01027
   41  C   1.09352   0.95492   0.98645   1.02292
   42  C   1.09259   1.00977   1.03230   1.05146
   43  C   1.09357   1.02281   0.95447   0.98626
   44  C   1.09252   1.03270   1.01049   1.05166
   45  C   1.09352   0.95497   1.02292   0.98646
   46  C   1.09355   1.02286   0.98633   0.95462
   47  C   1.09258   1.00984   1.05147   1.03234
   48  C   1.09356   0.98629   0.95455   1.02281
   49  C   1.11649   1.00403   1.01385   0.83350
   50  C   1.09764   1.02144   1.01136   0.93689
   51  C   1.11219   0.86608   1.00151   1.02064
   52  C   1.11201   1.02081   0.86665   1.00140
   53  C   1.11632   0.83525   1.00401   1.01412
   54  C   1.11627   1.01412   0.83456   1.00391
   55  C   1.11189   1.00152   1.02104   0.86836
   56  C   1.11213   1.02066   1.00142   0.86586
   57  C   1.11644   1.00397   0.83347   1.01390
   58  C   1.11623   1.01420   1.00392   0.83524
   59  C   1.11642   0.83460   1.01399   1.00405
   60  C   1.11186   1.00146   0.86817   1.02104
   61  C   1.11209   0.86706   1.02079   1.00155
   62  C   1.09765   1.02139   0.93684   1.01137
   63  C   1.08269   1.01286   1.07718   1.10005
   64  C   1.09773   1.01142   1.02133   0.93634
   65  C   1.08272   1.09981   1.01283   1.07718
   66  C   1.09768   0.93669   1.01138   1.02147
   67  C   1.08267   1.07727   1.10063   1.01286
   68  C   1.09770   1.01140   0.93650   1.02133
   69  C   1.08272   1.09967   1.07715   1.01284
   70  C   1.08269   1.07725   1.01284   1.10039
   71  C   1.09772   0.93647   1.02142   1.01140
   72  C   1.08267   1.01287   1.10042   1.07723
   73  C   1.10790   1.06912   0.84308   0.92355
   74  C   1.08120   0.96497   1.03167   0.98600
   75  C   1.10588   0.92702   1.06888   0.86137
   76  C   1.10615   0.86024   0.92639   1.06896
   77  C   1.10774   0.92392   1.06931   0.84470
   78  C   1.10810   0.84239   0.92307   1.06929
   79  C   1.10574   1.06895   0.86278   0.92737
   80  C   1.10614   0.86007   1.06892   0.92642
   81  C   1.10806   1.06915   0.92318   0.84218
   82  C   1.10798   0.84338   1.06936   0.92336
   83  C   1.10770   0.92401   0.84462   1.06922
   84  C   1.10591   1.06897   0.92697   0.86189
   85  C   1.10573   0.92739   0.86243   1.06889
   86  C   1.08120   0.96506   0.98601   1.03167
   87  C   1.11374   1.04526   0.77900   0.91874
   88  C   1.08114   1.03159   0.96524   0.98614
   89  C   1.11377   0.91870   1.04536   0.77871
   90  C   1.08117   0.98608   1.03163   0.96501
   91  C   1.11356   0.78007   0.91925   1.04531
   92  C   1.08116   1.03162   0.98610   0.96524
   93  C   1.11383   0.91855   0.77843   1.04533
   94  C   1.11361   0.77971   1.04536   0.91912
   95  C   1.08114   0.98613   0.96511   1.03160
   96  C   1.11364   1.04526   0.91902   0.77964
   97  C   1.06036   1.03907   1.07921   0.97854
   98  C   1.06212   1.06401   1.02614   0.97974
   99  C   1.05943   0.96231   1.00957   1.03253
  100  C   1.05943   1.03254   0.96227   1.00959
  101  C   1.06036   0.97845   1.03912   1.07913
  102  C   1.06032   1.07968   0.97855   1.03939
  103  C   1.05948   1.00954   1.03241   0.96236
  104  C   1.05942   1.03256   1.00959   0.96227
  105  C   1.06034   1.03922   0.97858   1.07948
  106  C   1.06033   1.07955   1.03935   0.97850
  107  C   1.06038   0.97846   1.07899   1.03900
  108  C   1.05947   1.00956   0.96233   1.03245
  109  C   1.05946   0.96235   1.03247   1.00955
  110  C   1.06214   1.06382   0.97972   1.02599
  111  C   1.06929   1.00795   1.01542   0.96979
  112  C   1.06220   1.02562   1.06328   0.97972
  113  C   1.06935   0.96964   1.00768   1.01482
  114  C   1.06215   0.97975   1.02605   1.06387
  115  C   1.06930   1.01517   0.96977   1.00779
  116  C   1.06218   1.02568   0.97971   1.06337
  117  C   1.06933   0.96967   1.01501   1.00778
  118  C   1.06933   1.01490   1.00768   0.96969
  119  C   1.06218   0.97974   1.06358   1.02585
  120  C   1.06928   1.00796   0.96982   1.01550
  121  C   1.05655   1.02018   0.96330   1.08404
  122  C   1.06452   0.98903   1.02036   1.05863
  123  C   1.05613   1.09278   1.02487   0.96070
  124  C   1.05615   0.96075   1.09267   1.02488
  125  C   1.05651   1.08492   1.02045   0.96343
  126  C   1.05654   0.96338   1.08430   1.02028
  127  C   1.05613   1.02500   0.96082   1.09319
  128  C   1.05614   0.96070   1.02484   1.09258
  129  C   1.05656   1.02014   1.08388   0.96329
  130  C   1.05652   0.96344   1.02040   1.08471
  131  C   1.05652   1.08467   0.96338   1.02037
  132  C   1.05614   1.02498   1.09305   0.96083
  133  C   1.05613   1.09301   0.96074   1.02493
  134  C   1.06450   0.98909   1.05881   1.02039
  135  C   1.06722   0.99126   0.95693   0.98692
  136  C   1.06460   1.02024   0.98902   1.05789
  137  C   1.06725   0.98687   0.99117   0.95697
  138  C   1.06459   1.05785   1.02023   0.98892
  139  C   1.06723   0.95689   0.98685   0.99125
  140  C   1.06455   1.02032   1.05836   0.98909
  141  C   1.06724   0.98688   0.95697   0.99119
  142  C   1.06724   0.95692   0.99121   0.98685
  143  C   1.06462   1.05756   0.98892   1.02018
  144  C   1.06722   0.99128   0.98690   0.95690
  145  C   1.10185   0.96746   0.92105   0.84572
  146  C   1.09229   0.95268   0.96957   0.91262
  147  C   1.10159   0.84241   0.96063   0.92176
  148  C   1.10140   0.92211   0.84357   0.96053
  149  C   1.10207   0.84443   0.96739   0.92067
  150  C   1.10177   0.92124   0.84625   0.96735
  151  C   1.10168   0.96061   0.92176   0.84211
  152  C   1.10141   0.92203   0.96056   0.84341
  153  C   1.10174   0.96743   0.84642   0.92128
  154  C   1.10190   0.92101   0.96734   0.84547
  155  C   1.10205   0.84450   0.92068   0.96744
  156  C   1.10156   0.96056   0.84278   0.92194
  157  C   1.10170   0.84189   0.92166   0.96065
  158  C   1.09234   0.95256   0.91228   0.96959
  159  C   1.07188   0.98159   1.00345   1.06627
  160  C   1.09222   0.96969   0.95283   0.91311
  161  C   1.07200   1.06564   0.98164   1.00329
  162  C   1.09216   0.91353   0.96962   0.95299
  163  C   1.07207   1.00320   1.06516   0.98151
  164  C   1.09230   0.96966   0.91258   0.95265
  165  C   1.07191   1.06613   1.00341   0.98165
  166  C   1.07209   1.00316   0.98156   1.06504
  167  C   1.09214   0.91372   0.95305   0.96967
  168  C   1.07194   0.98153   1.06590   1.00337
  169  C   1.07197   0.93833   0.86980   0.97238
  170  C   1.06887   0.92767   0.95916   0.97895
  171  C   1.07036   0.98080   0.94297   0.89156
  172  C   1.07052   0.89046   0.98061   0.94267
  173  C   1.07206   0.97229   0.93824   0.86917
  174  C   1.07213   0.86874   0.97224   0.93807
  175  C   1.07044   0.94291   0.89108   0.98070
  176  C   1.07047   0.89083   0.94275   0.98069
  177  C   1.07203   0.93822   0.97233   0.86944
  178  C   1.07214   0.86865   0.93808   0.97223
  179  C   1.07199   0.97235   0.86962   0.93833
  180  C   1.07051   0.94276   0.98062   0.89060
  181  C   1.07035   0.98081   0.89167   0.94303
  182  C   1.06887   0.92767   0.97894   0.95916
  183  C   1.06124   0.97257   0.95193   0.96887
  184  C   1.06885   0.95902   0.92763   0.97898
  185  C   1.06130   0.96887   0.97239   0.95151
  186  C   1.06886   0.97897   0.95909   0.92768
  187  C   1.06123   0.95220   0.96899   0.97262
  188  C   1.06885   0.95906   0.97896   0.92763
  189  C   1.06129   0.96884   0.95152   0.97242
  190  C   1.06126   0.95193   0.97252   0.96897
  191  C   1.06885   0.97899   0.92768   0.95904
  192  C   1.06122   0.97265   0.96893   0.95219
  193  C   1.08425   0.94334   1.00899   0.89322
  194  C   1.08388   1.02914   0.96110   0.90719
  195  C   1.08503   0.89226   0.94001   1.01320
  196  C   1.08505   1.01328   0.89210   0.94003
  197  C   1.08426   0.89312   0.94323   1.00908
  198  C   1.08427   1.00910   0.89298   0.94333
  199  C   1.08498   0.94004   1.01345   0.89267
  200  C   1.08506   1.01319   0.94002   0.89202
  201  C   1.08425   0.94337   0.89313   1.00902
  202  C   1.08427   1.00912   0.94327   0.89297
  203  C   1.08425   0.89322   1.00903   0.94326
  204  C   1.08500   0.94004   0.89250   1.01343
  205  C   1.08500   0.89252   1.01330   0.94002
  206  C   1.08386   1.02913   0.90721   0.96111
  207  C   1.07900   0.96068   1.03817   0.98611
  208  C   1.08381   0.96114   1.02920   0.90767
  209  C   1.07894   0.98651   0.96069   1.03814
  210  C   1.08386   0.90749   0.96111   1.02920
  211  C   1.07892   1.03825   0.98667   0.96070
  212  C   1.08383   0.96113   0.90749   1.02917
  213  C   1.07897   0.98626   1.03812   0.96069
  214  C   1.07891   1.03822   0.96070   0.98676
  215  C   1.08383   0.90768   1.02923   0.96112
  216  C   1.07898   0.96069   0.98627   1.03822
  217  C   1.07356   1.00337   0.97459   1.04208
  218  C   1.07049   0.96476   0.98614   1.01301
  219  C   1.07465   1.03091   1.00614   0.96999
  220  C   1.07457   0.96991   1.03105   1.00603
  221  C   1.07366   1.04144   1.00354   0.97446
  222  C   1.07352   0.97446   1.04198   1.00335
  223  C   1.07476   1.00619   0.96972   1.02978
  224  C   1.07455   0.97001   1.00603   1.03135
  225  C   1.07351   1.00330   1.04224   0.97457
  226  C   1.07358   0.97443   1.00345   1.04167
  227  C   1.07365   1.04159   0.97452   1.00352
  228  C   1.07469   1.00612   1.03010   0.96974
  229  C   1.07473   1.03029   0.96987   1.00620
  230  C   1.07047   0.96482   1.01320   0.98612
  231  C   1.10356   0.99963   0.91090   0.75535
  232  C   1.07047   0.98603   0.96479   1.01302
  233  C   1.10360   0.75533   0.99968   0.91083
  234  C   1.07051   1.01266   0.98611   0.96468
  235  C   1.10359   0.91083   0.75526   0.99973
  236  C   1.07046   0.98605   1.01321   0.96483
  237  C   1.10358   0.75537   0.91086   0.99963
  238  C   1.10361   0.91081   0.99974   0.75526
  239  C   1.07050   1.01267   0.96469   0.98607
  240  C   1.10357   0.99967   0.75531   0.91088
  241  C   1.07165   0.97122   0.99072   0.97283
  242  C   1.10307   0.97100   0.85095   0.85017
  243  C   1.07367   0.94888   0.95139   0.98972
  244  C   1.07383   0.98965   0.94811   0.95078
  245  C   1.07191   0.97125   0.97007   0.99052
  246  C   1.07185   0.99060   0.97175   0.97040
  247  C   1.07393   0.95037   0.98959   0.94757
  248  C   1.07372   0.98970   0.95120   0.94864
  249  C   1.07166   0.97118   0.97280   0.99073
  250  C   1.07195   0.99052   0.96997   0.97113
  251  C   1.07180   0.97190   0.99060   0.97055
  252  C   1.07396   0.95026   0.94743   0.98957
  253  C   1.07375   0.94848   0.98968   0.95108
  254  C   1.10316   0.97095   0.84976   0.85063
  255  C   1.06381   1.01013   0.99436   1.02381
  256  C   1.10310   0.85089   0.97102   0.85021
  257  C   1.06387   1.02345   1.00994   0.99425
  258  C   1.10295   0.85084   0.85141   0.97110
  259  C   1.06380   0.99441   1.02394   1.01015
  260  C   1.10318   0.85058   0.84976   0.97096
  261  C   1.06386   1.02349   0.99426   1.00998
  262  C   1.06383   0.99435   1.01004   1.02372
  263  C   1.10295   0.85087   0.97111   0.85140
  264  C   1.06379   1.01019   1.02398   0.99442
  265  B   0.58686   0.92373   0.94685   0.91674
  266  B   0.66302   0.92370   0.82513   0.56231
  267  B   0.58658   0.91946   0.92546   0.94108
  268  B   0.58647   0.94104   0.92039   0.92511
  269  B   0.58679   0.91699   0.92393   0.94665
  270  B   0.58674   0.94677   0.91757   0.92357
  271  B   0.58683   0.92514   0.94086   0.91821
  272  B   0.58642   0.94111   0.92528   0.92056
  273  B   0.58682   0.92358   0.91709   0.94687
  274  B   0.58673   0.94668   0.92372   0.91756
  275  B   0.58685   0.91666   0.94671   0.92394
  276  B   0.58672   0.92503   0.91898   0.94088
  277  B   0.58675   0.91851   0.94099   0.92540
  278  B   0.66304   0.92369   0.56225   0.82505
  279  B   0.60140   0.91947   0.95003   0.83527
  280  B   0.66304   0.82504   0.92366   0.56230
  281  B   0.60136   0.83541   0.91955   0.95009
  282  B   0.66300   0.56241   0.82521   0.92368
  283  B   0.60181   0.94995   0.83310   0.91922
  284  B   0.66305   0.82499   0.56225   0.92366
  285  B   0.60124   0.83605   0.95010   0.91961
  286  B   0.60170   0.95000   0.91932   0.83363
  287  B   0.66301   0.56240   0.92367   0.82518
  288  B   0.60163   0.91931   0.83410   0.94997
  289  H   0.87229
  290  H   0.87171
  291  H   0.86777
  292  H   0.86780
  293  H   0.87220
  294  H   0.87228
  295  H   0.86766
  296  H   0.86783
  297  H   0.87231
  298  H   0.87223
  299  H   0.87222
  300  H   0.86770
  301  H   0.86771
  302  H   0.87176
  303  H   0.84962
  304  H   0.87181
  305  H   0.84960
  306  H   0.87171
  307  H   0.84959
  308  H   0.87182
  309  H   0.84961
  310  H   0.84959
  311  H   0.87175
  312  H   0.84961
  313  H   0.84882
  314  H   0.85005
  315  H   0.85067
  316  H   0.85063
  317  H   0.84886
  318  H   0.84873
  319  H   0.85060
  320  H   0.85066
  321  H   0.84876
  322  H   0.84877
  323  H   0.84888
  324  H   0.85060
  325  H   0.85065
  326  H   0.85013
  327  H   0.82100
  328  H   0.85004
  329  H   0.82104
  330  H   0.84992
  331  H   0.82107
  332  H   0.85012
  333  H   0.82100
  334  H   0.82108
  335  H   0.84991
  336  H   0.82103
  337  H   0.83311
  338  H   0.83397
  339  H   0.83138
  340  H   0.83142
  341  H   0.83301
  342  H   0.83310
  343  H   0.83126
  344  H   0.83144
  345  H   0.83314
  346  H   0.83305
  347  H   0.83303
  348  H   0.83131
  349  H   0.83131
  350  H   0.83396
  351  H   0.82974
  352  H   0.83400
  353  H   0.82975
  354  H   0.83399
  355  H   0.82964
  356  H   0.83398
  357  H   0.82978
  358  H   0.82967
  359  H   0.83401
  360  H   0.82969

 **********************
 *                    *
 * JOB ENDED NORMALLY *
 *                    *
 **********************



 TOTAL JOB TIME:           169.57 SECONDS

 == MOPAC DONE ==
