 *******************************************************************************
 **                                                                           **
 **                              MOPAC v22.1.0                                **
 **                                                                           **
 *******************************************************************************
 **          Digital Object Identifier (DOI): 10.5281/zenodo.6511958          **
 **    Visit the DOI location for information on how to cite this program.    **
 *******************************************************************************

                              PM7 CALCULATION RESULTS

 *******************************************************************************
 *  CALCULATION DONE:                                Thu Feb  1 11:56:06 2024  *
 *  PM7        - The PM7 Hamiltonian to be used
 *  NOOPT      - DO NOT OPTIMIZE ANY COORDINATES
 *
 *
 *
 *                 CHARGE ON SYSTEM = 0
 *
 *
 *
 *  T=         - A TIME OF 172800.0 SECONDS REQUESTED
 *  DUMP=N     - RESTART FILE WRITTEN EVERY 7200.0 SECONDS REQUESTED
 *******************************************************************************
PM7 CHARGE=0 NOOPT


   ATOM   CHEMICAL          X               Y               Z
  NUMBER   SYMBOL      (ANGSTROMS)     (ANGSTROMS)     (ANGSTROMS)

     1       C         14.61205173      6.51090158      2.45394469   
     2       C         15.42329099      5.43172115      2.69215159   
     3       C         15.09414619      5.59648370      5.02996388   
     4       C         15.80748341      7.41507528      7.14782340   
     5       C         15.61011062      5.07277077      6.23578235   
     6       C         14.67304145      6.91698469      5.09235593   
     7       C         15.12844399      7.90634434      6.01732699   
     8       C         15.68797589      4.90346846      3.92898783   
     9       C         20.55415173      3.48815531      0.56880158   
    10       C         21.31445531      2.72785173      5.37329842   
    11       C         21.07624841      3.53909099      6.45247885   
    12       C         20.88911979      0.37796510      3.25358497   
    13       C         18.20426510      3.06281979      2.68851503   
    14       C         19.44026943      2.41655700      2.59672147   
    15       C         20.24285700      1.61396943      3.34537853   
    16       C         16.49935776      4.00939632      5.92265745   
    17       C         17.84574255      4.61515776      7.87480368   
    18       C         15.89359632      5.96154255      7.26904224   
    19       C         18.73843612      3.20994619      6.28771630   
    20       C         16.62057660      3.92328341      4.46912472   
    21       C         17.53261765      3.72591062      6.81142923   
    22       C         20.61514145      0.84974407      0.97488469   
    23       C         18.67604407      2.78884145      4.96721531   
    24       C         17.75107301      3.24424399      3.97785566   
    25       C         19.83941217      3.80377589      6.98073154   
    26       C          2.45394469     14.61205173      6.51090158   
    27       C          2.69215159     15.42329099      5.43172115   
    28       C          5.02996388     15.09414619      5.59648370   
    29       C          7.14782340     15.80748341      7.41507528   
    30       C          6.23578235     15.61011062      5.07277077   
    31       C          5.09235593     14.67304145      6.91698469   
    32       C          6.01732699     15.12844399      7.90634434   
    33       C          3.92898783     15.68797589      4.90346846   
    34       C         15.37235531     11.31539842      3.21424827   
    35       C         15.13414841     12.39457885      2.40300901   
    36       C          9.48119099      8.63425159      0.51037885   
    37       C         12.26216510      8.63061503      2.87928021   
    38       C         14.94701979      9.19568497      5.56413490   
    39       C         14.30075700      9.28747853      4.32813057   
    40       C         13.49816943      8.53882147      3.52554300   
    41       C         11.90364255     13.81690368      1.32694224   
    42       C         10.55725776     11.86475745      1.93270368   
    43       C         12.79633612     12.22981630      2.73215381   
    44       C          9.15204619     10.97206388      0.34561630   
    45       C         10.67847660     10.41122472      2.01881659   
    46       C         13.35717528     13.90301659      1.20572340   
    47       C         11.01487077     14.10038938      0.29368235   
    48       C         11.59051765     12.75352923      2.21618938   
    49       C          9.66801062     12.17788235      0.86932923   
    50       C         12.73394407     10.90931531      3.15325855   
    51       C         11.80897301      9.91995566      2.69785601   
    52       C         13.89731217     12.92283154      2.13832411   
    53       C          9.74587589      9.87108783      1.03863154   
    54       C         13.84844434     14.58205601      0.07522699   
    55       C          5.37329842     21.31445531      2.72785173   
    56       C          0.56880158     20.55415173      3.48815531   
    57       C          6.45247885     21.07624841      3.53909099   
    58       C          2.68851503     18.20426510      3.06281979   
    59       C          3.25358497     20.88911979      0.37796510   
    60       C          3.34537853     20.24285700      1.61396943   
    61       C          2.59672147     19.44026943      2.41655700   
    62       C          7.26904224     15.89359632      5.96154255   
    63       C          5.92265745     16.49935776      4.00939632   
    64       C          7.87480368     17.84574255      4.61515776   
    65       C          6.28771630     18.73843612      3.20994619   
    66       C          4.46912472     16.62057660      3.92328341   
    67       C          6.81142923     17.53261765      3.72591062   
    68       C          4.96721531     18.67604407      2.78884145   
    69       C          0.97488469     20.61514145      0.84974407   
    70       C          3.97785566     17.75107301      3.24424399   
    71       C          6.98073154     19.83941217      3.80377589   
    72       C          8.82138021     21.07988497      6.32006510   
    73       C          9.46764300     21.17167853      7.55606943   
    74       C          8.67425381     17.48068370      6.85423612   
    75       C          7.96091659     19.29927528      4.73637660   
    76       C          8.15828938     16.95697077      5.64841765   
    77       C          9.09535855     18.80118469      6.79184407   
    78       C          8.63995601     19.79054434      5.86687301   
    79       C         21.07054399     23.69317301      1.96422058   
    80       C         23.25802115     21.36539099      3.24994841   
    81       C         21.83569632     22.44145776      0.01944255   
    82       C         23.42278370     21.03624619      0.91213612   
    83       C         21.74958341     22.56267660      1.47297528   
    84       C         22.72976846     21.63007589      2.01311217   
    85       C          6.51090158      2.45394469     14.61205173   
    86       C          5.43172115      2.69215159     15.42329099   
    87       C          5.59648370      5.02996388     15.09414619   
    88       C          7.41507528      7.14782340     15.80748341   
    89       C          5.07277077      6.23578235     15.61011062   
    90       C          6.91698469      5.09235593     14.67304145   
    91       C          7.90634434      6.01732699     15.12844399   
    92       C          4.90346846      3.92898783     15.68797589   
    93       C         11.31539842      3.21424827     15.37235531   
    94       C          8.63425159      0.51037885      9.48119099   
    95       C         12.39457885      2.40300901     15.13414841   
    96       C          9.19568497      5.56413490     14.94701979   
    97       C          8.63061503      2.87928021     12.26216510   
    98       C          8.53882147      3.52554300     13.49816943   
    99       C          9.28747853      4.32813057     14.30075700   
   100       C         13.81690368      1.32694224     11.90364255   
   101       C         11.86475745      1.93270368     10.55725776   
   102       C         10.97206388      0.34561630      9.15204619   
   103       C         12.22981630      2.73215381     12.79633612   
   104       C         13.90301659      1.20572340     13.35717528   
   105       C         10.41122472      2.01881659     10.67847660   
   106       C         12.75352923      2.21618938     11.59051765   
   107       C         12.17788235      0.86932923      9.66801062   
   108       C         14.10038938      0.29368235     11.01487077   
   109       C         10.90931531      3.15325855     12.73394407   
   110       C          9.91995566      2.69785601     11.80897301   
   111       C          9.87108783      1.03863154      9.74587589   
   112       C         12.92283154      2.13832411     13.89731217   
   113       C         14.58205601      0.07522699     13.84844434   
   114       C         21.07988497      6.32006510      8.82138021   
   115       C         21.17167853      7.55606943      9.46764300   
   116       C         17.48068370      6.85423612      8.67425381   
   117       C         19.29927528      4.73637660      7.96091659   
   118       C         16.95697077      5.64841765      8.15828938   
   119       C         18.80118469      6.79184407      9.09535855   
   120       C         19.79054434      5.86687301      8.63995601   
   121       C          3.21424827     15.37235531     11.31539842   
   122       C          2.40300901     15.13414841     12.39457885   
   123       C          0.51037885      9.48119099      8.63425159   
   124       C          2.87928021     12.26216510      8.63061503   
   125       C          5.56413490     14.94701979      9.19568497   
   126       C          4.32813057     14.30075700      9.28747853   
   127       C          3.52554300     13.49816943      8.53882147   
   128       C          1.93270368     10.55725776     11.86475745   
   129       C          1.32694224     11.90364255     13.81690368   
   130       C          2.73215381     12.79633612     12.22981630   
   131       C          0.34561630      9.15204619     10.97206388   
   132       C          1.20572340     13.35717528     13.90301659   
   133       C          2.01881659     10.67847660     10.41122472   
   134       C          0.86932923      9.66801062     12.17788235   
   135       C          0.29368235     11.01487077     14.10038938   
   136       C          2.21618938     11.59051765     12.75352923   
   137       C          3.15325855     12.73394407     10.90931531   
   138       C          2.69785601     11.80897301      9.91995566   
   139       C          2.13832411     13.89731217     12.92283154   
   140       C          1.03863154      9.74587589      9.87108783   
   141       C          0.07522699     13.84844434     14.58205601   
   142       C         16.78766846      7.95521217      8.08042411   
   143       C         18.39510158      9.43025531      9.15634827   
   144       C         20.28024469     12.45300158     15.09844827   
   145       C         23.19959842      8.66995173      8.39604469   
   146       C         17.31592115      9.19204841      8.34510901   
   147       C         20.51845159     11.37382115     14.28720901   
   148       C         23.39043490     15.13778497     14.76348021   
   149       C         20.51481503      9.00491979     11.50623490   
   150       C         20.42302147      8.35865700     10.27023057   
   151       C         22.15443057     15.22957853     15.40974300   
   152       C         23.74895745      9.95149632     13.21114224   
   153       C         22.85626388     11.53858370     14.61635381   
   154       C         22.29542472      9.86538341     13.08992340   
   155       C         22.91865593     12.85908469     15.03745855   
   156       C         22.79351531      8.73094145     11.03445593   
   157       C         21.80415566      9.18634399     11.95942699   
   158       C         21.75528783     10.84556846     14.02252411   
   159       C          8.08042411     16.78766846      7.95521217   
   160       C          8.39604469     23.19959842      8.66995173   
   161       C          9.15634827     18.39510158      9.43025531   
   162       C         15.09844827     20.28024469     12.45300158   
   163       C          8.34510901     17.31592115      9.19204841   
   164       C         14.28720901     20.51845159     11.37382115   
   165       C         11.50623490     20.51481503      9.00491979   
   166       C         14.76348021     23.39043490     15.13778497   
   167       C         10.27023057     20.42302147      8.35865700   
   168       C         15.40974300     22.15443057     15.22957853   
   169       C         13.21114224     23.74895745      9.95149632   
   170       C         14.61635381     22.85626388     11.53858370   
   171       C         13.08992340     22.29542472      9.86538341   
   172       C         11.03445593     22.79351531      8.73094145   
   173       C         15.03745855     22.91865593     12.85908469   
   174       C         11.95942699     21.80415566      9.18634399   
   175       C         14.02252411     21.75528783     10.84556846   
   176       C         21.04054827     17.25749842     14.33814469   
   177       C         20.22930901     18.33667885     14.57635159   
   178       C         17.44833490     20.70558021     14.57271503   
   179       C         16.21233057     21.35184300     14.48092147   
   180       C         19.96462411     18.86493154     15.81318783   
   181       C          3.48815531      0.56880158     20.55415173   
   182       C          2.72785173      5.37329842     21.31445531   
   183       C          3.53909099      6.45247885     21.07624841   
   184       C          0.37796510      3.25358497     20.88911979   
   185       C          3.06281979      2.68851503     18.20426510   
   186       C          2.41655700      2.59672147     19.44026943   
   187       C          1.61396943      3.34537853     20.24285700   
   188       C          4.61515776      7.87480368     17.84574255   
   189       C          5.96154255      7.26904224     15.89359632   
   190       C          4.00939632      5.92265745     16.49935776   
   191       C          3.20994619      6.28771630     18.73843612   
   192       C          3.92328341      4.46912472     16.62057660   
   193       C          3.72591062      6.81142923     17.53261765   
   194       C          0.84974407      0.97488469     20.61514145   
   195       C          2.78884145      4.96721531     18.67604407   
   196       C          3.24424399      3.97785566     17.75107301   
   197       C          3.80377589      6.98073154     19.83941217   
   198       C         23.69317301      1.96422058     21.07054399   
   199       C         21.36539099      3.24994841     23.25802115   
   200       C         22.44145776      0.01944255     21.83569632   
   201       C         21.03624619      0.91213612     23.42278370   
   202       C         22.56267660      1.47297528     21.74958341   
   203       C         21.63007589      2.01311217     22.72976846   
   204       C          6.32006510      8.82138021     21.07988497   
   205       C          7.55606943      9.46764300     21.17167853   
   206       C          6.85423612      8.67425381     17.48068370   
   207       C          4.73637660      7.96091659     19.29927528   
   208       C          5.64841765      8.15828938     16.95697077   
   209       C          6.79184407      9.09535855     18.80118469   
   210       C          5.86687301      8.63995601     19.79054434   
   211       C          7.95521217      8.08042411     16.78766846   
   212       C          8.66995173      8.39604469     23.19959842   
   213       C         12.45300158     15.09844827     20.28024469   
   214       C          9.43025531      9.15634827     18.39510158   
   215       C         11.37382115     14.28720901     20.51845159   
   216       C          9.19204841      8.34510901     17.31592115   
   217       C          9.00491979     11.50623490     20.51481503   
   218       C         15.13778497     14.76348021     23.39043490   
   219       C         15.22957853     15.40974300     22.15443057   
   220       C          8.35865700     10.27023057     20.42302147   
   221       C          9.95149632     13.21114224     23.74895745   
   222       C         11.53858370     14.61635381     22.85626388   
   223       C          9.86538341     13.08992340     22.29542472   
   224       C          8.73094145     11.03445593     22.79351531   
   225       C         12.85908469     15.03745855     22.91865593   
   226       C          9.18634399     11.95942699     21.80415566   
   227       C         10.84556846     14.02252411     21.75528783   
   228       C         17.25749842     14.33814469     21.04054827   
   229       C         18.33667885     14.57635159     20.22930901   
   230       C         20.70558021     14.57271503     17.44833490   
   231       C         21.35184300     14.48092147     16.21233057   
   232       C         18.86493154     15.81318783     19.96462411   
   233       C          1.96422058     21.07054399     23.69317301   
   234       C          3.24994841     23.25802115     21.36539099   
   235       C          0.01944255     21.83569632     22.44145776   
   236       C          0.91213612     23.42278370     21.03624619   
   237       C          1.47297528     21.74958341     22.56267660   
   238       C          2.01311217     22.72976846     21.63007589   
   239       C         14.33814469     21.04054827     17.25749842   
   240       C         14.57635159     20.22930901     18.33667885   
   241       C         14.57271503     17.44833490     20.70558021   
   242       C         14.48092147     16.21233057     21.35184300   
   243       C         15.81318783     19.96462411     18.86493154   
   244       C         19.15324224     19.75900368     17.80685745   
   245       C         17.80685745     19.15324224     19.75900368   
   246       C         19.75900368     17.80685745     19.15324224   
   247       C         18.17191630     16.91416388     20.55845381   
   248       C         20.55845381     18.17191630     16.91416388   
   249       C         16.91416388     20.55845381     18.17191630   
   250       C         16.35332472     19.03202340     19.84511659   
   251       C         19.84511659     16.35332472     19.03202340   
   252       C         19.03202340     19.84511659     16.35332472   
   253       C         22.89907077     21.55221062     23.47471765   
   254       C         20.04248938     18.69562923     18.11998235   
   255       C         23.47471765     22.89907077     21.55221062   
   256       C         18.11998235     20.04248938     18.69562923   
   257       C         21.55221062     23.47471765     22.89907077   
   258       C         18.69562923     18.11998235     20.04248938   
   259       C         16.85141531     16.97655593     20.97955855   
   260       C         20.97955855     16.85141531     16.97655593   
   261       C         16.97655593     20.97955855     16.85141531   
   262       C         15.86205566     17.90152699     20.52415601   
   263       C         20.52415601     15.86205566     17.90152699   
   264       C         17.90152699     20.52415601     15.86205566   
   265       B         14.29279458      7.30576441      3.72671874   
   266       B         20.23489458      2.21538126      1.36366441   
   267       B         20.04168126      2.40859458      4.57843559   
   268       B          3.72671874     14.29279458      7.30576441   
   269       B         14.09958126     10.52053559      3.53350542   
   270       B          4.57843559     20.04168126      2.40859458   
   271       B          1.36366441     20.23489458      2.21538126   
   272       B          7.30576441      3.72671874     14.29279458   
   273       B         10.52053559      3.53350542     14.09958126   
   274       B          3.53350542     14.09958126     10.52053559   
   275       B         19.18996441      8.15748126      9.47560542   
   276       B         21.55301874     13.24786441     15.41770542   
   277       B         22.40473559      8.35069458      9.66881874   
   278       B          9.66881874     22.40473559      8.35069458   
   279       B          9.47560542     19.18996441      8.15748126   
   280       B         15.41770542     21.55301874     13.24786441   
   281       B         21.35980542     16.46263559     15.61091874   
   282       B          2.21538126      1.36366441     20.23489458   
   283       B          2.40859458      4.57843559     20.04168126   
   284       B          8.35069458      9.66881874     22.40473559   
   285       B         13.24786441     15.41770542     21.55301874   
   286       B          8.15748126      9.47560542     19.18996441   
   287       B         16.46263559     15.61091874     21.35980542   
   288       B         15.61091874     21.35980542     16.46263559   
   289       H         14.23073529      6.76838466      1.39808106   
   290       H          9.95553695      7.77167259      0.97621572   
   291       H         11.70094564      7.75256280      2.56273266   
   292       H         15.89763695      4.96588428      1.82957259   
   293       H         22.37031894      2.34653529      5.11581534   
   294       H         20.17283529      4.54401894      0.82628466   
   295       H         21.93882741      4.01343695      6.91831572   
   296       H         17.64304564      3.37936734      1.81046280   
   297       H          1.39808106     14.23073529      6.76838466   
   298       H          0.97621572      9.95553695      7.77167259   
   299       H          2.56273266     11.70094564      7.75256280   
   300       H         15.26356734     10.07373720      6.12535436   
   301       H         22.94211534      8.28863529      7.34018106   
   302       H         16.42821894     11.05791534      3.59556471   
   303       H         15.99672741     12.86041572      1.92866305   
   304       H         16.85008428     10.05462741      7.87076305   
   305       H         16.01583720     14.44693266      0.18325436   
   306       H          1.82957259     15.89763695      4.96588428   
   307       H          5.11581534     22.37031894      2.34653529   
   308       H          0.82628466     20.17283529      4.54401894   
   309       H          6.91831572     21.93882741      4.01343695   
   310       H          1.81046280     17.64304564      3.37936734   
   311       H          8.50483266     21.95793720      5.75884564   
   312       H         21.20566734     23.58514564      4.13163720   
   313       H         22.79218428     21.83973695      4.11252741   
   314       H          6.76838466      1.39808106     14.23073529   
   315       H          7.77167259      0.97621572      9.95553695   
   316       H          7.75256280      2.56273266     11.70094564   
   317       H         10.07373720      6.12535436     15.26356734   
   318       H         21.95793720      5.75884564      8.50483266   
   319       H          6.12535436     15.26356734     10.07373720   
   320       H         18.65258466     10.48611894      9.53766471   
   321       H         19.22438106     12.71048466     15.47976471   
   322       H         19.65587259     10.90798428     13.81286305   
   323       H         19.63676280      9.32146734     12.06745436   
   324       H          3.59556471     16.42821894     11.05791534   
   325       H          7.34018106     22.94211534      8.28863529   
   326       H          1.92866305     15.99672741     12.86041572   
   327       H          7.87076305     16.85008428     10.05462741   
   328       H          0.18325436     16.01583720     14.44693266   
   329       H         15.47976471     19.22438106     12.71048466   
   330       H          9.53766471     18.65258466     10.48611894   
   331       H         13.81286305     19.65587259     10.90798428   
   332       H         12.06745436     19.63676280      9.32146734   
   333       H         21.42186471     17.00001534     13.28228106   
   334       H         19.75496305     18.80251572     13.71377259   
   335       H         18.00955436     20.38903266     13.69466280   
   336       H          4.96588428      1.82957259     15.89763695   
   337       H          2.34653529      5.11581534     22.37031894   
   338       H          4.54401894      0.82628466     20.17283529   
   339       H          4.01343695      6.91831572     21.93882741   
   340       H          3.37936734      1.81046280     17.64304564   
   341       H          8.28863529      7.34018106     22.94211534   
   342       H         11.05791534      3.59556471     16.42821894   
   343       H         12.86041572      1.92866305     15.99672741   
   344       H         10.05462741      7.87076305     16.85008428   
   345       H         14.44693266      0.18325436     16.01583720   
   346       H         23.58514564      4.13163720     21.20566734   
   347       H         21.83973695      4.11252741     22.79218428   
   348       H          5.75884564      8.50483266     21.95793720   
   349       H         10.48611894      9.53766471     18.65258466   
   350       H         12.71048466     15.47976471     19.22438106   
   351       H         10.90798428     13.81286305     19.65587259   
   352       H          9.32146734     12.06745436     19.63676280   
   353       H         17.00001534     13.28228106     21.42186471   
   354       H         18.80251572     13.71377259     19.75496305   
   355       H         20.38903266     13.69466280     18.00955436   
   356       H          4.13163720     21.20566734     23.58514564   
   357       H          4.11252741     22.79218428     21.83973695   
   358       H         13.28228106     21.42186471     17.00001534   
   359       H         13.71377259     19.75496305     18.80251572   
   360       H         13.69466280     18.00955436     20.38903266   
   361      Tv         23.76840000      0.00000000      0.00000000   
   362      Tv          0.00000000     23.76840000      0.00000000   
   363      Tv          0.00000000      0.00000000     23.76840000   


                   THE SYSTEM IS A SOLID


                UNIT CELL TRANSLATION VECTORS

              X                Y              Z
    T1 =    23.7684000      0.0000000      0.0000000
    T2 =     0.0000000     23.7684000      0.0000000
    T3 =     0.0000000      0.0000000     23.7684000


          CARTESIAN COORDINATES 

    NO.       ATOM           X           Y           Z

     1         C         14.6121      6.5109      2.4539
     2         C         15.4233      5.4317      2.6922
     3         C         15.0941      5.5965      5.0300
     4         C         15.8075      7.4151      7.1478
     5         C         15.6101      5.0728      6.2358
     6         C         14.6730      6.9170      5.0924
     7         C         15.1284      7.9063      6.0173
     8         C         15.6880      4.9035      3.9290
     9         C         20.5542      3.4882      0.5688
    10         C         21.3145      2.7279      5.3733
    11         C         21.0762      3.5391      6.4525
    12         C         20.8891      0.3780      3.2536
    13         C         18.2043      3.0628      2.6885
    14         C         19.4403      2.4166      2.5967
    15         C         20.2429      1.6140      3.3454
    16         C         16.4994      4.0094      5.9227
    17         C         17.8457      4.6152      7.8748
    18         C         15.8936      5.9615      7.2690
    19         C         18.7384      3.2099      6.2877
    20         C         16.6206      3.9233      4.4691
    21         C         17.5326      3.7259      6.8114
    22         C         20.6151      0.8497      0.9749
    23         C         18.6760      2.7888      4.9672
    24         C         17.7511      3.2442      3.9779
    25         C         19.8394      3.8038      6.9807
    26         C          2.4539     14.6121      6.5109
    27         C          2.6922     15.4233      5.4317
    28         C          5.0300     15.0941      5.5965
    29         C          7.1478     15.8075      7.4151
    30         C          6.2358     15.6101      5.0728
    31         C          5.0924     14.6730      6.9170
    32         C          6.0173     15.1284      7.9063
    33         C          3.9290     15.6880      4.9035
    34         C         15.3724     11.3154      3.2142
    35         C         15.1341     12.3946      2.4030
    36         C          9.4812      8.6343      0.5104
    37         C         12.2622      8.6306      2.8793
    38         C         14.9470      9.1957      5.5641
    39         C         14.3008      9.2875      4.3281
    40         C         13.4982      8.5388      3.5255
    41         C         11.9036     13.8169      1.3269
    42         C         10.5573     11.8648      1.9327
    43         C         12.7963     12.2298      2.7322
    44         C          9.1520     10.9721      0.3456
    45         C         10.6785     10.4112      2.0188
    46         C         13.3572     13.9030      1.2057
    47         C         11.0149     14.1004      0.2937
    48         C         11.5905     12.7535      2.2162
    49         C          9.6680     12.1779      0.8693
    50         C         12.7339     10.9093      3.1533
    51         C         11.8090      9.9200      2.6979
    52         C         13.8973     12.9228      2.1383
    53         C          9.7459      9.8711      1.0386
    54         C         13.8484     14.5821      0.0752
    55         C          5.3733     21.3145      2.7279
    56         C          0.5688     20.5542      3.4882
    57         C          6.4525     21.0762      3.5391
    58         C          2.6885     18.2043      3.0628
    59         C          3.2536     20.8891      0.3780
    60         C          3.3454     20.2429      1.6140
    61         C          2.5967     19.4403      2.4166
    62         C          7.2690     15.8936      5.9615
    63         C          5.9227     16.4994      4.0094
    64         C          7.8748     17.8457      4.6152
    65         C          6.2877     18.7384      3.2099
    66         C          4.4691     16.6206      3.9233
    67         C          6.8114     17.5326      3.7259
    68         C          4.9672     18.6760      2.7888
    69         C          0.9749     20.6151      0.8497
    70         C          3.9779     17.7511      3.2442
    71         C          6.9807     19.8394      3.8038
    72         C          8.8214     21.0799      6.3201
    73         C          9.4676     21.1717      7.5561
    74         C          8.6743     17.4807      6.8542
    75         C          7.9609     19.2993      4.7364
    76         C          8.1583     16.9570      5.6484
    77         C          9.0954     18.8012      6.7918
    78         C          8.6400     19.7905      5.8669
    79         C         21.0705     23.6932      1.9642
    80         C         23.2580     21.3654      3.2499
    81         C         21.8357     22.4415      0.0194
    82         C         23.4228     21.0362      0.9121
    83         C         21.7496     22.5627      1.4730
    84         C         22.7298     21.6301      2.0131
    85         C          6.5109      2.4539     14.6121
    86         C          5.4317      2.6922     15.4233
    87         C          5.5965      5.0300     15.0941
    88         C          7.4151      7.1478     15.8075
    89         C          5.0728      6.2358     15.6101
    90         C          6.9170      5.0924     14.6730
    91         C          7.9063      6.0173     15.1284
    92         C          4.9035      3.9290     15.6880
    93         C         11.3154      3.2142     15.3724
    94         C          8.6343      0.5104      9.4812
    95         C         12.3946      2.4030     15.1341
    96         C          9.1957      5.5641     14.9470
    97         C          8.6306      2.8793     12.2622
    98         C          8.5388      3.5255     13.4982
    99         C          9.2875      4.3281     14.3008
   100         C         13.8169      1.3269     11.9036
   101         C         11.8648      1.9327     10.5573
   102         C         10.9721      0.3456      9.1520
   103         C         12.2298      2.7322     12.7963
   104         C         13.9030      1.2057     13.3572
   105         C         10.4112      2.0188     10.6785
   106         C         12.7535      2.2162     11.5905
   107         C         12.1779      0.8693      9.6680
   108         C         14.1004      0.2937     11.0149
   109         C         10.9093      3.1533     12.7339
   110         C          9.9200      2.6979     11.8090
   111         C          9.8711      1.0386      9.7459
   112         C         12.9228      2.1383     13.8973
   113         C         14.5821      0.0752     13.8484
   114         C         21.0799      6.3201      8.8214
   115         C         21.1717      7.5561      9.4676
   116         C         17.4807      6.8542      8.6743
   117         C         19.2993      4.7364      7.9609
   118         C         16.9570      5.6484      8.1583
   119         C         18.8012      6.7918      9.0954
   120         C         19.7905      5.8669      8.6400
   121         C          3.2142     15.3724     11.3154
   122         C          2.4030     15.1341     12.3946
   123         C          0.5104      9.4812      8.6343
   124         C          2.8793     12.2622      8.6306
   125         C          5.5641     14.9470      9.1957
   126         C          4.3281     14.3008      9.2875
   127         C          3.5255     13.4982      8.5388
   128         C          1.9327     10.5573     11.8648
   129         C          1.3269     11.9036     13.8169
   130         C          2.7322     12.7963     12.2298
   131         C          0.3456      9.1520     10.9721
   132         C          1.2057     13.3572     13.9030
   133         C          2.0188     10.6785     10.4112
   134         C          0.8693      9.6680     12.1779
   135         C          0.2937     11.0149     14.1004
   136         C          2.2162     11.5905     12.7535
   137         C          3.1533     12.7339     10.9093
   138         C          2.6979     11.8090      9.9200
   139         C          2.1383     13.8973     12.9228
   140         C          1.0386      9.7459      9.8711
   141         C          0.0752     13.8484     14.5821
   142         C         16.7877      7.9552      8.0804
   143         C         18.3951      9.4303      9.1563
   144         C         20.2802     12.4530     15.0984
   145         C         23.1996      8.6700      8.3960
   146         C         17.3159      9.1920      8.3451
   147         C         20.5185     11.3738     14.2872
   148         C         23.3904     15.1378     14.7635
   149         C         20.5148      9.0049     11.5062
   150         C         20.4230      8.3587     10.2702
   151         C         22.1544     15.2296     15.4097
   152         C         23.7490      9.9515     13.2111
   153         C         22.8563     11.5386     14.6164
   154         C         22.2954      9.8654     13.0899
   155         C         22.9187     12.8591     15.0375
   156         C         22.7935      8.7309     11.0345
   157         C         21.8042      9.1863     11.9594
   158         C         21.7553     10.8456     14.0225
   159         C          8.0804     16.7877      7.9552
   160         C          8.3960     23.1996      8.6700
   161         C          9.1563     18.3951      9.4303
   162         C         15.0984     20.2802     12.4530
   163         C          8.3451     17.3159      9.1920
   164         C         14.2872     20.5185     11.3738
   165         C         11.5062     20.5148      9.0049
   166         C         14.7635     23.3904     15.1378
   167         C         10.2702     20.4230      8.3587
   168         C         15.4097     22.1544     15.2296
   169         C         13.2111     23.7490      9.9515
   170         C         14.6164     22.8563     11.5386
   171         C         13.0899     22.2954      9.8654
   172         C         11.0345     22.7935      8.7309
   173         C         15.0375     22.9187     12.8591
   174         C         11.9594     21.8042      9.1863
   175         C         14.0225     21.7553     10.8456
   176         C         21.0405     17.2575     14.3381
   177         C         20.2293     18.3367     14.5764
   178         C         17.4483     20.7056     14.5727
   179         C         16.2123     21.3518     14.4809
   180         C         19.9646     18.8649     15.8132
   181         C          3.4882      0.5688     20.5542
   182         C          2.7279      5.3733     21.3145
   183         C          3.5391      6.4525     21.0762
   184         C          0.3780      3.2536     20.8891
   185         C          3.0628      2.6885     18.2043
   186         C          2.4166      2.5967     19.4403
   187         C          1.6140      3.3454     20.2429
   188         C          4.6152      7.8748     17.8457
   189         C          5.9615      7.2690     15.8936
   190         C          4.0094      5.9227     16.4994
   191         C          3.2099      6.2877     18.7384
   192         C          3.9233      4.4691     16.6206
   193         C          3.7259      6.8114     17.5326
   194         C          0.8497      0.9749     20.6151
   195         C          2.7888      4.9672     18.6760
   196         C          3.2442      3.9779     17.7511
   197         C          3.8038      6.9807     19.8394
   198         C         23.6932      1.9642     21.0705
   199         C         21.3654      3.2499     23.2580
   200         C         22.4415      0.0194     21.8357
   201         C         21.0362      0.9121     23.4228
   202         C         22.5627      1.4730     21.7496
   203         C         21.6301      2.0131     22.7298
   204         C          6.3201      8.8214     21.0799
   205         C          7.5561      9.4676     21.1717
   206         C          6.8542      8.6743     17.4807
   207         C          4.7364      7.9609     19.2993
   208         C          5.6484      8.1583     16.9570
   209         C          6.7918      9.0954     18.8012
   210         C          5.8669      8.6400     19.7905
   211         C          7.9552      8.0804     16.7877
   212         C          8.6700      8.3960     23.1996
   213         C         12.4530     15.0984     20.2802
   214         C          9.4303      9.1563     18.3951
   215         C         11.3738     14.2872     20.5185
   216         C          9.1920      8.3451     17.3159
   217         C          9.0049     11.5062     20.5148
   218         C         15.1378     14.7635     23.3904
   219         C         15.2296     15.4097     22.1544
   220         C          8.3587     10.2702     20.4230
   221         C          9.9515     13.2111     23.7490
   222         C         11.5386     14.6164     22.8563
   223         C          9.8654     13.0899     22.2954
   224         C          8.7309     11.0345     22.7935
   225         C         12.8591     15.0375     22.9187
   226         C          9.1863     11.9594     21.8042
   227         C         10.8456     14.0225     21.7553
   228         C         17.2575     14.3381     21.0405
   229         C         18.3367     14.5764     20.2293
   230         C         20.7056     14.5727     17.4483
   231         C         21.3518     14.4809     16.2123
   232         C         18.8649     15.8132     19.9646
   233         C          1.9642     21.0705     23.6932
   234         C          3.2499     23.2580     21.3654
   235         C          0.0194     21.8357     22.4415
   236         C          0.9121     23.4228     21.0362
   237         C          1.4730     21.7496     22.5627
   238         C          2.0131     22.7298     21.6301
   239         C         14.3381     21.0405     17.2575
   240         C         14.5764     20.2293     18.3367
   241         C         14.5727     17.4483     20.7056
   242         C         14.4809     16.2123     21.3518
   243         C         15.8132     19.9646     18.8649
   244         C         19.1532     19.7590     17.8069
   245         C         17.8069     19.1532     19.7590
   246         C         19.7590     17.8069     19.1532
   247         C         18.1719     16.9142     20.5585
   248         C         20.5585     18.1719     16.9142
   249         C         16.9142     20.5585     18.1719
   250         C         16.3533     19.0320     19.8451
   251         C         19.8451     16.3533     19.0320
   252         C         19.0320     19.8451     16.3533
   253         C         22.8991     21.5522     23.4747
   254         C         20.0425     18.6956     18.1200
   255         C         23.4747     22.8991     21.5522
   256         C         18.1200     20.0425     18.6956
   257         C         21.5522     23.4747     22.8991
   258         C         18.6956     18.1200     20.0425
   259         C         16.8514     16.9766     20.9796
   260         C         20.9796     16.8514     16.9766
   261         C         16.9766     20.9796     16.8514
   262         C         15.8621     17.9015     20.5242
   263         C         20.5242     15.8621     17.9015
   264         C         17.9015     20.5242     15.8621
   265         B         14.2928      7.3058      3.7267
   266         B         20.2349      2.2154      1.3637
   267         B         20.0417      2.4086      4.5784
   268         B          3.7267     14.2928      7.3058
   269         B         14.0996     10.5205      3.5335
   270         B          4.5784     20.0417      2.4086
   271         B          1.3637     20.2349      2.2154
   272         B          7.3058      3.7267     14.2928
   273         B         10.5205      3.5335     14.0996
   274         B          3.5335     14.0996     10.5205
   275         B         19.1900      8.1575      9.4756
   276         B         21.5530     13.2479     15.4177
   277         B         22.4047      8.3507      9.6688
   278         B          9.6688     22.4047      8.3507
   279         B          9.4756     19.1900      8.1575
   280         B         15.4177     21.5530     13.2479
   281         B         21.3598     16.4626     15.6109
   282         B          2.2154      1.3637     20.2349
   283         B          2.4086      4.5784     20.0417
   284         B          8.3507      9.6688     22.4047
   285         B         13.2479     15.4177     21.5530
   286         B          8.1575      9.4756     19.1900
   287         B         16.4626     15.6109     21.3598
   288         B         15.6109     21.3598     16.4626
   289         H         14.2307      6.7684      1.3981
   290         H          9.9555      7.7717      0.9762
   291         H         11.7009      7.7526      2.5627
   292         H         15.8976      4.9659      1.8296
   293         H         22.3703      2.3465      5.1158
   294         H         20.1728      4.5440      0.8263
   295         H         21.9388      4.0134      6.9183
   296         H         17.6430      3.3794      1.8105
   297         H          1.3981     14.2307      6.7684
   298         H          0.9762      9.9555      7.7717
   299         H          2.5627     11.7009      7.7526
   300         H         15.2636     10.0737      6.1254
   301         H         22.9421      8.2886      7.3402
   302         H         16.4282     11.0579      3.5956
   303         H         15.9967     12.8604      1.9287
   304         H         16.8501     10.0546      7.8708
   305         H         16.0158     14.4469      0.1833
   306         H          1.8296     15.8976      4.9659
   307         H          5.1158     22.3703      2.3465
   308         H          0.8263     20.1728      4.5440
   309         H          6.9183     21.9388      4.0134
   310         H          1.8105     17.6430      3.3794
   311         H          8.5048     21.9579      5.7588
   312         H         21.2057     23.5851      4.1316
   313         H         22.7922     21.8397      4.1125
   314         H          6.7684      1.3981     14.2307
   315         H          7.7717      0.9762      9.9555
   316         H          7.7526      2.5627     11.7009
   317         H         10.0737      6.1254     15.2636
   318         H         21.9579      5.7588      8.5048
   319         H          6.1254     15.2636     10.0737
   320         H         18.6526     10.4861      9.5377
   321         H         19.2244     12.7105     15.4798
   322         H         19.6559     10.9080     13.8129
   323         H         19.6368      9.3215     12.0675
   324         H          3.5956     16.4282     11.0579
   325         H          7.3402     22.9421      8.2886
   326         H          1.9287     15.9967     12.8604
   327         H          7.8708     16.8501     10.0546
   328         H          0.1833     16.0158     14.4469
   329         H         15.4798     19.2244     12.7105
   330         H          9.5377     18.6526     10.4861
   331         H         13.8129     19.6559     10.9080
   332         H         12.0675     19.6368      9.3215
   333         H         21.4219     17.0000     13.2823
   334         H         19.7550     18.8025     13.7138
   335         H         18.0096     20.3890     13.6947
   336         H          4.9659      1.8296     15.8976
   337         H          2.3465      5.1158     22.3703
   338         H          4.5440      0.8263     20.1728
   339         H          4.0134      6.9183     21.9388
   340         H          3.3794      1.8105     17.6430
   341         H          8.2886      7.3402     22.9421
   342         H         11.0579      3.5956     16.4282
   343         H         12.8604      1.9287     15.9967
   344         H         10.0546      7.8708     16.8501
   345         H         14.4469      0.1833     16.0158
   346         H         23.5851      4.1316     21.2057
   347         H         21.8397      4.1125     22.7922
   348         H          5.7588      8.5048     21.9579
   349         H         10.4861      9.5377     18.6526
   350         H         12.7105     15.4798     19.2244
   351         H         10.9080     13.8129     19.6559
   352         H          9.3215     12.0675     19.6368
   353         H         17.0000     13.2823     21.4219
   354         H         18.8025     13.7138     19.7550
   355         H         20.3890     13.6947     18.0096
   356         H          4.1316     21.2057     23.5851
   357         H          4.1125     22.7922     21.8397
   358         H         13.2823     21.4219     17.0000
   359         H         13.7138     19.7550     18.8025
   360         H         13.6947     18.0096     20.3890

 General Reference for PM7:
 "Optimization of Parameters for Semiempirical Methods VI: More Modifications to the 
 NDDO Approximations and Re-optimization of Parameters", J. J. P. Stewart, J. Mol. Mod., 1:32, 19 (2013)
 https://link.springer.com/article/10.1007/s00894-012-1667-x

           Empirical Formula: C264 H72 B24  =   360 atoms



      RHF CALCULATION, NO. OF DOUBLY OCCUPIED LEVELS = 600


 -------------------------------------------------------------------------------
 PM7 CHARGE=0 NOOPT




     NO PARAMETERS MARKED FOR OPTIMIZATION, SO 1SCF WAS USED  
     SCF FIELD WAS ACHIEVED                                   


                              PM7 CALCULATION
                                                       MOPAC v22.1.0 Linux
                                                       Thu Feb  1 11:57:43 2024




          FINAL HEAT OF FORMATION =       3554.96433 KCAL/MOL =   14873.97076 KJ/MOL
          H.o.F. per unit cell    =        148.12351 KCAL, for 24 unit cells, unit cell = C11 H3 B1



          IONIZATION POTENTIAL    =          7.703914 EV
          HOMO LUMO ENERGIES (EV) =         -7.704 -4.146
          NO. OF FILLED LEVELS    =        600
          MOLECULAR WEIGHT        =       3502.9128

                   THE SYSTEM IS A SOLID


                UNIT CELL TRANSLATION VECTORS

              X                Y              Z
    T1 =    23.7684000      0.0000000      0.0000000
    T2 =     0.0000000     23.7684000      0.0000000
    T3 =     0.0000000      0.0000000     23.7684000

          VOLUME OF UNIT CELL     =      13427.645 CUBIC ANGSTROMS

          DENSITY                 =          0.433 GRAMS/CC
                              A   =         23.768 ANGSTROMS
                              B   =         23.768 ANGSTROMS
                              C   =         23.768 ANGSTROMS
                            ALPHA =         90.000 DEGREES
                            BETA  =         90.000 DEGREES
                            GAMMA =         90.000 DEGREES



          SCF CALCULATIONS        =          1

          WALL-CLOCK TIME         =          1 MINUTE AND 37.609 SECONDS
          COMPUTATION TIME        =          1 MINUTE AND 37.601 SECONDS




   ATOM   CHEMICAL          X               Y               Z
  NUMBER   SYMBOL      (ANGSTROMS)     (ANGSTROMS)     (ANGSTROMS)

     1       C         14.61205173      6.51090158      2.45394469   
     2       C         15.42329099      5.43172115      2.69215159   
     3       C         15.09414619      5.59648370      5.02996388   
     4       C         15.80748341      7.41507528      7.14782340   
     5       C         15.61011062      5.07277077      6.23578235   
     6       C         14.67304145      6.91698469      5.09235593   
     7       C         15.12844399      7.90634434      6.01732699   
     8       C         15.68797589      4.90346846      3.92898783   
     9       C         20.55415173      3.48815531      0.56880158   
    10       C         21.31445531      2.72785173      5.37329842   
    11       C         21.07624841      3.53909099      6.45247885   
    12       C         20.88911979      0.37796510      3.25358497   
    13       C         18.20426510      3.06281979      2.68851503   
    14       C         19.44026943      2.41655700      2.59672147   
    15       C         20.24285700      1.61396943      3.34537853   
    16       C         16.49935776      4.00939632      5.92265745   
    17       C         17.84574255      4.61515776      7.87480368   
    18       C         15.89359632      5.96154255      7.26904224   
    19       C         18.73843612      3.20994619      6.28771630   
    20       C         16.62057660      3.92328341      4.46912472   
    21       C         17.53261765      3.72591062      6.81142923   
    22       C         20.61514145      0.84974407      0.97488469   
    23       C         18.67604407      2.78884145      4.96721531   
    24       C         17.75107301      3.24424399      3.97785566   
    25       C         19.83941217      3.80377589      6.98073154   
    26       C          2.45394469     14.61205173      6.51090158   
    27       C          2.69215159     15.42329099      5.43172115   
    28       C          5.02996388     15.09414619      5.59648370   
    29       C          7.14782340     15.80748341      7.41507528   
    30       C          6.23578235     15.61011062      5.07277077   
    31       C          5.09235593     14.67304145      6.91698469   
    32       C          6.01732699     15.12844399      7.90634434   
    33       C          3.92898783     15.68797589      4.90346846   
    34       C         15.37235531     11.31539842      3.21424827   
    35       C         15.13414841     12.39457885      2.40300901   
    36       C          9.48119099      8.63425159      0.51037885   
    37       C         12.26216510      8.63061503      2.87928021   
    38       C         14.94701979      9.19568497      5.56413490   
    39       C         14.30075700      9.28747853      4.32813057   
    40       C         13.49816943      8.53882147      3.52554300   
    41       C         11.90364255     13.81690368      1.32694224   
    42       C         10.55725776     11.86475745      1.93270368   
    43       C         12.79633612     12.22981630      2.73215381   
    44       C          9.15204619     10.97206388      0.34561630   
    45       C         10.67847660     10.41122472      2.01881659   
    46       C         13.35717528     13.90301659      1.20572340   
    47       C         11.01487077     14.10038938      0.29368235   
    48       C         11.59051765     12.75352923      2.21618938   
    49       C          9.66801062     12.17788235      0.86932923   
    50       C         12.73394407     10.90931531      3.15325855   
    51       C         11.80897301      9.91995566      2.69785601   
    52       C         13.89731217     12.92283154      2.13832411   
    53       C          9.74587589      9.87108783      1.03863154   
    54       C         13.84844434     14.58205601      0.07522699   
    55       C          5.37329842     21.31445531      2.72785173   
    56       C          0.56880158     20.55415173      3.48815531   
    57       C          6.45247885     21.07624841      3.53909099   
    58       C          2.68851503     18.20426510      3.06281979   
    59       C          3.25358497     20.88911979      0.37796510   
    60       C          3.34537853     20.24285700      1.61396943   
    61       C          2.59672147     19.44026943      2.41655700   
    62       C          7.26904224     15.89359632      5.96154255   
    63       C          5.92265745     16.49935776      4.00939632   
    64       C          7.87480368     17.84574255      4.61515776   
    65       C          6.28771630     18.73843612      3.20994619   
    66       C          4.46912472     16.62057660      3.92328341   
    67       C          6.81142923     17.53261765      3.72591062   
    68       C          4.96721531     18.67604407      2.78884145   
    69       C          0.97488469     20.61514145      0.84974407   
    70       C          3.97785566     17.75107301      3.24424399   
    71       C          6.98073154     19.83941217      3.80377589   
    72       C          8.82138021     21.07988497      6.32006510   
    73       C          9.46764300     21.17167853      7.55606943   
    74       C          8.67425381     17.48068370      6.85423612   
    75       C          7.96091659     19.29927528      4.73637660   
    76       C          8.15828938     16.95697077      5.64841765   
    77       C          9.09535855     18.80118469      6.79184407   
    78       C          8.63995601     19.79054434      5.86687301   
    79       C         21.07054399     23.69317301      1.96422058   
    80       C         23.25802115     21.36539099      3.24994841   
    81       C         21.83569632     22.44145776      0.01944255   
    82       C         23.42278370     21.03624619      0.91213612   
    83       C         21.74958341     22.56267660      1.47297528   
    84       C         22.72976846     21.63007589      2.01311217   
    85       C          6.51090158      2.45394469     14.61205173   
    86       C          5.43172115      2.69215159     15.42329099   
    87       C          5.59648370      5.02996388     15.09414619   
    88       C          7.41507528      7.14782340     15.80748341   
    89       C          5.07277077      6.23578235     15.61011062   
    90       C          6.91698469      5.09235593     14.67304145   
    91       C          7.90634434      6.01732699     15.12844399   
    92       C          4.90346846      3.92898783     15.68797589   
    93       C         11.31539842      3.21424827     15.37235531   
    94       C          8.63425159      0.51037885      9.48119099   
    95       C         12.39457885      2.40300901     15.13414841   
    96       C          9.19568497      5.56413490     14.94701979   
    97       C          8.63061503      2.87928021     12.26216510   
    98       C          8.53882147      3.52554300     13.49816943   
    99       C          9.28747853      4.32813057     14.30075700   
   100       C         13.81690368      1.32694224     11.90364255   
   101       C         11.86475745      1.93270368     10.55725776   
   102       C         10.97206388      0.34561630      9.15204619   
   103       C         12.22981630      2.73215381     12.79633612   
   104       C         13.90301659      1.20572340     13.35717528   
   105       C         10.41122472      2.01881659     10.67847660   
   106       C         12.75352923      2.21618938     11.59051765   
   107       C         12.17788235      0.86932923      9.66801062   
   108       C         14.10038938      0.29368235     11.01487077   
   109       C         10.90931531      3.15325855     12.73394407   
   110       C          9.91995566      2.69785601     11.80897301   
   111       C          9.87108783      1.03863154      9.74587589   
   112       C         12.92283154      2.13832411     13.89731217   
   113       C         14.58205601      0.07522699     13.84844434   
   114       C         21.07988497      6.32006510      8.82138021   
   115       C         21.17167853      7.55606943      9.46764300   
   116       C         17.48068370      6.85423612      8.67425381   
   117       C         19.29927528      4.73637660      7.96091659   
   118       C         16.95697077      5.64841765      8.15828938   
   119       C         18.80118469      6.79184407      9.09535855   
   120       C         19.79054434      5.86687301      8.63995601   
   121       C          3.21424827     15.37235531     11.31539842   
   122       C          2.40300901     15.13414841     12.39457885   
   123       C          0.51037885      9.48119099      8.63425159   
   124       C          2.87928021     12.26216510      8.63061503   
   125       C          5.56413490     14.94701979      9.19568497   
   126       C          4.32813057     14.30075700      9.28747853   
   127       C          3.52554300     13.49816943      8.53882147   
   128       C          1.93270368     10.55725776     11.86475745   
   129       C          1.32694224     11.90364255     13.81690368   
   130       C          2.73215381     12.79633612     12.22981630   
   131       C          0.34561630      9.15204619     10.97206388   
   132       C          1.20572340     13.35717528     13.90301659   
   133       C          2.01881659     10.67847660     10.41122472   
   134       C          0.86932923      9.66801062     12.17788235   
   135       C          0.29368235     11.01487077     14.10038938   
   136       C          2.21618938     11.59051765     12.75352923   
   137       C          3.15325855     12.73394407     10.90931531   
   138       C          2.69785601     11.80897301      9.91995566   
   139       C          2.13832411     13.89731217     12.92283154   
   140       C          1.03863154      9.74587589      9.87108783   
   141       C          0.07522699     13.84844434     14.58205601   
   142       C         16.78766846      7.95521217      8.08042411   
   143       C         18.39510158      9.43025531      9.15634827   
   144       C         20.28024469     12.45300158     15.09844827   
   145       C         23.19959842      8.66995173      8.39604469   
   146       C         17.31592115      9.19204841      8.34510901   
   147       C         20.51845159     11.37382115     14.28720901   
   148       C         23.39043490     15.13778497     14.76348021   
   149       C         20.51481503      9.00491979     11.50623490   
   150       C         20.42302147      8.35865700     10.27023057   
   151       C         22.15443057     15.22957853     15.40974300   
   152       C         23.74895745      9.95149632     13.21114224   
   153       C         22.85626388     11.53858370     14.61635381   
   154       C         22.29542472      9.86538341     13.08992340   
   155       C         22.91865593     12.85908469     15.03745855   
   156       C         22.79351531      8.73094145     11.03445593   
   157       C         21.80415566      9.18634399     11.95942699   
   158       C         21.75528783     10.84556846     14.02252411   
   159       C          8.08042411     16.78766846      7.95521217   
   160       C          8.39604469     23.19959842      8.66995173   
   161       C          9.15634827     18.39510158      9.43025531   
   162       C         15.09844827     20.28024469     12.45300158   
   163       C          8.34510901     17.31592115      9.19204841   
   164       C         14.28720901     20.51845159     11.37382115   
   165       C         11.50623490     20.51481503      9.00491979   
   166       C         14.76348021     23.39043490     15.13778497   
   167       C         10.27023057     20.42302147      8.35865700   
   168       C         15.40974300     22.15443057     15.22957853   
   169       C         13.21114224     23.74895745      9.95149632   
   170       C         14.61635381     22.85626388     11.53858370   
   171       C         13.08992340     22.29542472      9.86538341   
   172       C         11.03445593     22.79351531      8.73094145   
   173       C         15.03745855     22.91865593     12.85908469   
   174       C         11.95942699     21.80415566      9.18634399   
   175       C         14.02252411     21.75528783     10.84556846   
   176       C         21.04054827     17.25749842     14.33814469   
   177       C         20.22930901     18.33667885     14.57635159   
   178       C         17.44833490     20.70558021     14.57271503   
   179       C         16.21233057     21.35184300     14.48092147   
   180       C         19.96462411     18.86493154     15.81318783   
   181       C          3.48815531      0.56880158     20.55415173   
   182       C          2.72785173      5.37329842     21.31445531   
   183       C          3.53909099      6.45247885     21.07624841   
   184       C          0.37796510      3.25358497     20.88911979   
   185       C          3.06281979      2.68851503     18.20426510   
   186       C          2.41655700      2.59672147     19.44026943   
   187       C          1.61396943      3.34537853     20.24285700   
   188       C          4.61515776      7.87480368     17.84574255   
   189       C          5.96154255      7.26904224     15.89359632   
   190       C          4.00939632      5.92265745     16.49935776   
   191       C          3.20994619      6.28771630     18.73843612   
   192       C          3.92328341      4.46912472     16.62057660   
   193       C          3.72591062      6.81142923     17.53261765   
   194       C          0.84974407      0.97488469     20.61514145   
   195       C          2.78884145      4.96721531     18.67604407   
   196       C          3.24424399      3.97785566     17.75107301   
   197       C          3.80377589      6.98073154     19.83941217   
   198       C         23.69317301      1.96422058     21.07054399   
   199       C         21.36539099      3.24994841     23.25802115   
   200       C         22.44145776      0.01944255     21.83569632   
   201       C         21.03624619      0.91213612     23.42278370   
   202       C         22.56267660      1.47297528     21.74958341   
   203       C         21.63007589      2.01311217     22.72976846   
   204       C          6.32006510      8.82138021     21.07988497   
   205       C          7.55606943      9.46764300     21.17167853   
   206       C          6.85423612      8.67425381     17.48068370   
   207       C          4.73637660      7.96091659     19.29927528   
   208       C          5.64841765      8.15828938     16.95697077   
   209       C          6.79184407      9.09535855     18.80118469   
   210       C          5.86687301      8.63995601     19.79054434   
   211       C          7.95521217      8.08042411     16.78766846   
   212       C          8.66995173      8.39604469     23.19959842   
   213       C         12.45300158     15.09844827     20.28024469   
   214       C          9.43025531      9.15634827     18.39510158   
   215       C         11.37382115     14.28720901     20.51845159   
   216       C          9.19204841      8.34510901     17.31592115   
   217       C          9.00491979     11.50623490     20.51481503   
   218       C         15.13778497     14.76348021     23.39043490   
   219       C         15.22957853     15.40974300     22.15443057   
   220       C          8.35865700     10.27023057     20.42302147   
   221       C          9.95149632     13.21114224     23.74895745   
   222       C         11.53858370     14.61635381     22.85626388   
   223       C          9.86538341     13.08992340     22.29542472   
   224       C          8.73094145     11.03445593     22.79351531   
   225       C         12.85908469     15.03745855     22.91865593   
   226       C          9.18634399     11.95942699     21.80415566   
   227       C         10.84556846     14.02252411     21.75528783   
   228       C         17.25749842     14.33814469     21.04054827   
   229       C         18.33667885     14.57635159     20.22930901   
   230       C         20.70558021     14.57271503     17.44833490   
   231       C         21.35184300     14.48092147     16.21233057   
   232       C         18.86493154     15.81318783     19.96462411   
   233       C          1.96422058     21.07054399     23.69317301   
   234       C          3.24994841     23.25802115     21.36539099   
   235       C          0.01944255     21.83569632     22.44145776   
   236       C          0.91213612     23.42278370     21.03624619   
   237       C          1.47297528     21.74958341     22.56267660   
   238       C          2.01311217     22.72976846     21.63007589   
   239       C         14.33814469     21.04054827     17.25749842   
   240       C         14.57635159     20.22930901     18.33667885   
   241       C         14.57271503     17.44833490     20.70558021   
   242       C         14.48092147     16.21233057     21.35184300   
   243       C         15.81318783     19.96462411     18.86493154   
   244       C         19.15324224     19.75900368     17.80685745   
   245       C         17.80685745     19.15324224     19.75900368   
   246       C         19.75900368     17.80685745     19.15324224   
   247       C         18.17191630     16.91416388     20.55845381   
   248       C         20.55845381     18.17191630     16.91416388   
   249       C         16.91416388     20.55845381     18.17191630   
   250       C         16.35332472     19.03202340     19.84511659   
   251       C         19.84511659     16.35332472     19.03202340   
   252       C         19.03202340     19.84511659     16.35332472   
   253       C         22.89907077     21.55221062     23.47471765   
   254       C         20.04248938     18.69562923     18.11998235   
   255       C         23.47471765     22.89907077     21.55221062   
   256       C         18.11998235     20.04248938     18.69562923   
   257       C         21.55221062     23.47471765     22.89907077   
   258       C         18.69562923     18.11998235     20.04248938   
   259       C         16.85141531     16.97655593     20.97955855   
   260       C         20.97955855     16.85141531     16.97655593   
   261       C         16.97655593     20.97955855     16.85141531   
   262       C         15.86205566     17.90152699     20.52415601   
   263       C         20.52415601     15.86205566     17.90152699   
   264       C         17.90152699     20.52415601     15.86205566   
   265       B         14.29279458      7.30576441      3.72671874   
   266       B         20.23489458      2.21538126      1.36366441   
   267       B         20.04168126      2.40859458      4.57843559   
   268       B          3.72671874     14.29279458      7.30576441   
   269       B         14.09958126     10.52053559      3.53350542   
   270       B          4.57843559     20.04168126      2.40859458   
   271       B          1.36366441     20.23489458      2.21538126   
   272       B          7.30576441      3.72671874     14.29279458   
   273       B         10.52053559      3.53350542     14.09958126   
   274       B          3.53350542     14.09958126     10.52053559   
   275       B         19.18996441      8.15748126      9.47560542   
   276       B         21.55301874     13.24786441     15.41770542   
   277       B         22.40473559      8.35069458      9.66881874   
   278       B          9.66881874     22.40473559      8.35069458   
   279       B          9.47560542     19.18996441      8.15748126   
   280       B         15.41770542     21.55301874     13.24786441   
   281       B         21.35980542     16.46263559     15.61091874   
   282       B          2.21538126      1.36366441     20.23489458   
   283       B          2.40859458      4.57843559     20.04168126   
   284       B          8.35069458      9.66881874     22.40473559   
   285       B         13.24786441     15.41770542     21.55301874   
   286       B          8.15748126      9.47560542     19.18996441   
   287       B         16.46263559     15.61091874     21.35980542   
   288       B         15.61091874     21.35980542     16.46263559   
   289       H         14.23073529      6.76838466      1.39808106   
   290       H          9.95553695      7.77167259      0.97621572   
   291       H         11.70094564      7.75256280      2.56273266   
   292       H         15.89763695      4.96588428      1.82957259   
   293       H         22.37031894      2.34653529      5.11581534   
   294       H         20.17283529      4.54401894      0.82628466   
   295       H         21.93882741      4.01343695      6.91831572   
   296       H         17.64304564      3.37936734      1.81046280   
   297       H          1.39808106     14.23073529      6.76838466   
   298       H          0.97621572      9.95553695      7.77167259   
   299       H          2.56273266     11.70094564      7.75256280   
   300       H         15.26356734     10.07373720      6.12535436   
   301       H         22.94211534      8.28863529      7.34018106   
   302       H         16.42821894     11.05791534      3.59556471   
   303       H         15.99672741     12.86041572      1.92866305   
   304       H         16.85008428     10.05462741      7.87076305   
   305       H         16.01583720     14.44693266      0.18325436   
   306       H          1.82957259     15.89763695      4.96588428   
   307       H          5.11581534     22.37031894      2.34653529   
   308       H          0.82628466     20.17283529      4.54401894   
   309       H          6.91831572     21.93882741      4.01343695   
   310       H          1.81046280     17.64304564      3.37936734   
   311       H          8.50483266     21.95793720      5.75884564   
   312       H         21.20566734     23.58514564      4.13163720   
   313       H         22.79218428     21.83973695      4.11252741   
   314       H          6.76838466      1.39808106     14.23073529   
   315       H          7.77167259      0.97621572      9.95553695   
   316       H          7.75256280      2.56273266     11.70094564   
   317       H         10.07373720      6.12535436     15.26356734   
   318       H         21.95793720      5.75884564      8.50483266   
   319       H          6.12535436     15.26356734     10.07373720   
   320       H         18.65258466     10.48611894      9.53766471   
   321       H         19.22438106     12.71048466     15.47976471   
   322       H         19.65587259     10.90798428     13.81286305   
   323       H         19.63676280      9.32146734     12.06745436   
   324       H          3.59556471     16.42821894     11.05791534   
   325       H          7.34018106     22.94211534      8.28863529   
   326       H          1.92866305     15.99672741     12.86041572   
   327       H          7.87076305     16.85008428     10.05462741   
   328       H          0.18325436     16.01583720     14.44693266   
   329       H         15.47976471     19.22438106     12.71048466   
   330       H          9.53766471     18.65258466     10.48611894   
   331       H         13.81286305     19.65587259     10.90798428   
   332       H         12.06745436     19.63676280      9.32146734   
   333       H         21.42186471     17.00001534     13.28228106   
   334       H         19.75496305     18.80251572     13.71377259   
   335       H         18.00955436     20.38903266     13.69466280   
   336       H          4.96588428      1.82957259     15.89763695   
   337       H          2.34653529      5.11581534     22.37031894   
   338       H          4.54401894      0.82628466     20.17283529   
   339       H          4.01343695      6.91831572     21.93882741   
   340       H          3.37936734      1.81046280     17.64304564   
   341       H          8.28863529      7.34018106     22.94211534   
   342       H         11.05791534      3.59556471     16.42821894   
   343       H         12.86041572      1.92866305     15.99672741   
   344       H         10.05462741      7.87076305     16.85008428   
   345       H         14.44693266      0.18325436     16.01583720   
   346       H         23.58514564      4.13163720     21.20566734   
   347       H         21.83973695      4.11252741     22.79218428   
   348       H          5.75884564      8.50483266     21.95793720   
   349       H         10.48611894      9.53766471     18.65258466   
   350       H         12.71048466     15.47976471     19.22438106   
   351       H         10.90798428     13.81286305     19.65587259   
   352       H          9.32146734     12.06745436     19.63676280   
   353       H         17.00001534     13.28228106     21.42186471   
   354       H         18.80251572     13.71377259     19.75496305   
   355       H         20.38903266     13.69466280     18.00955436   
   356       H          4.13163720     21.20566734     23.58514564   
   357       H          4.11252741     22.79218428     21.83973695   
   358       H         13.28228106     21.42186471     17.00001534   
   359       H         13.71377259     19.75496305     18.80251572   
   360       H         13.69466280     18.00955436     20.38903266   
   361      Tv         23.76840000      0.00000000      0.00000000   
   362      Tv          0.00000000     23.76840000      0.00000000   
   363      Tv          0.00000000      0.00000000     23.76840000   

                             CARTESIAN COORDINATES

   1    C       14.612051731     6.510901580     2.453944690
   2    C       15.423290992     5.431721147     2.692151594
   3    C       15.094146188     5.596483696     5.029963882
   4    C       15.807483409     7.415075285     7.147823395
   5    C       15.610110616     5.072770770     6.235782350
   6    C       14.673041446     6.916984694     5.092355932
   7    C       15.128443990     7.906344344     6.017326986
   8    C       15.687975894     4.903468457     3.928987825
   9    C       20.554151731     3.488155310     0.568801580
  10    C       21.314455310     2.727851731     5.373298420
  11    C       21.076248406     3.539090992     6.452478853
  12    C       20.889119792     0.377965097     3.253584971
  13    C       18.204265097     3.062819792     2.688515029
  14    C       19.440269434     2.416556996     2.596721468
  15    C       20.242856996     1.613969434     3.345378532
  16    C       16.499357765     4.009396322     5.922657449
  17    C       17.845742551     4.615157765     7.874803678
  18    C       15.893596322     5.961542551     7.269042235
  19    C       18.738436118     3.209946188     6.287716304
  20    C       16.620576605     3.923283409     4.469124715
  21    C       17.532617650     3.725910616     6.811429230
  22    C       20.615141446     0.849744068     0.974884694
  23    C       18.676044068     2.788841446     4.967215306
  24    C       17.751073014     3.244243990     3.977855656
  25    C       19.839412175     3.803775894     6.980731543
  26    C        2.453944690    14.612051731     6.510901580
  27    C        2.692151594    15.423290992     5.431721147
  28    C        5.029963882    15.094146188     5.596483696
  29    C        7.147823395    15.807483409     7.415075285
  30    C        6.235782350    15.610110616     5.072770770
  31    C        5.092355932    14.673041446     6.916984694
  32    C        6.017326986    15.128443990     7.906344344
  33    C        3.928987825    15.687975894     4.903468457
  34    C       15.372355310    11.315398420     3.214248269
  35    C       15.134148406    12.394578853     2.403009008
  36    C        9.481190992     8.634251594     0.510378853
  37    C       12.262165097     8.630615029     2.879280208
  38    C       14.947019792     9.195684971     5.564134903
  39    C       14.300756996     9.287478532     4.328130566
  40    C       13.498169434     8.538821468     3.525543004
  41    C       11.903642551    13.816903678     1.326942235
  42    C       10.557257765    11.864757449     1.932703678
  43    C       12.796336118    12.229816304     2.732153812
  44    C        9.152046188    10.972063882     0.345616304
  45    C       10.678476605    10.411224715     2.018816591
  46    C       13.357175285    13.903016591     1.205723395
  47    C       11.014870770    14.100389384     0.293682350
  48    C       11.590517650    12.753529230     2.216189384
  49    C        9.668010616    12.177882350     0.869329230
  50    C       12.733944068    10.909315306     3.153258554
  51    C       11.808973014     9.919955656     2.697856010
  52    C       13.897312175    12.922831543     2.138324106
  53    C        9.745875894     9.871087825     1.038631543
  54    C       13.848444344    14.582056010     0.075226986
  55    C        5.373298420    21.314455310     2.727851731
  56    C        0.568801580    20.554151731     3.488155310
  57    C        6.452478853    21.076248406     3.539090992
  58    C        2.688515029    18.204265097     3.062819792
  59    C        3.253584971    20.889119792     0.377965097
  60    C        3.345378532    20.242856996     1.613969434
  61    C        2.596721468    19.440269434     2.416556996
  62    C        7.269042235    15.893596322     5.961542551
  63    C        5.922657449    16.499357765     4.009396322
  64    C        7.874803678    17.845742551     4.615157765
  65    C        6.287716304    18.738436118     3.209946188
  66    C        4.469124715    16.620576605     3.923283409
  67    C        6.811429230    17.532617650     3.725910616
  68    C        4.967215306    18.676044068     2.788841446
  69    C        0.974884694    20.615141446     0.849744068
  70    C        3.977855656    17.751073014     3.244243990
  71    C        6.980731543    19.839412175     3.803775894
  72    C        8.821380208    21.079884971     6.320065097
  73    C        9.467643004    21.171678532     7.556069434
[...]
  293          H           0.149392        0.8506     0.85061
  294          H           0.149392        0.8506     0.85061
  295          H           0.159105        0.8409     0.84089
  296          H           0.186390        0.8136     0.81361
  297          H           0.149392        0.8506     0.85061
  298          H           0.159106        0.8409     0.84089
  299          H           0.186390        0.8136     0.81361
  300          H           0.186390        0.8136     0.81361
  301          H           0.149392        0.8506     0.85061
  302          H           0.149392        0.8506     0.85061
  303          H           0.159106        0.8409     0.84089
  304          H           0.159106        0.8409     0.84089
  305          H           0.186390        0.8136     0.81361
  306          H           0.159105        0.8409     0.84089
  307          H           0.149392        0.8506     0.85061
  308          H           0.149392        0.8506     0.85061
  309          H           0.159105        0.8409     0.84089
  310          H           0.186390        0.8136     0.81361
  311          H           0.186390        0.8136     0.81361
  312          H           0.186389        0.8136     0.81361
  313          H           0.159108        0.8409     0.84089
  314          H           0.149392        0.8506     0.85061
  315          H           0.159106        0.8409     0.84089
  316          H           0.186390        0.8136     0.81361
  317          H           0.186390        0.8136     0.81361
  318          H           0.186390        0.8136     0.81361
  319          H           0.186390        0.8136     0.81361
  320          H           0.149392        0.8506     0.85061
  321          H           0.149392        0.8506     0.85061
  322          H           0.159106        0.8409     0.84089
  323          H           0.186390        0.8136     0.81361
  324          H           0.149392        0.8506     0.85061
  325          H           0.149392        0.8506     0.85061
  326          H           0.159106        0.8409     0.84089
  327          H           0.159106        0.8409     0.84089
  328          H           0.186390        0.8136     0.81361
  329          H           0.149392        0.8506     0.85061
  330          H           0.149392        0.8506     0.85061
  331          H           0.159106        0.8409     0.84089
  332          H           0.186390        0.8136     0.81361
  333          H           0.149392        0.8506     0.85061
  334          H           0.159106        0.8409     0.84089
  335          H           0.186390        0.8136     0.81361
  336          H           0.159105        0.8409     0.84089
  337          H           0.149392        0.8506     0.85061
  338          H           0.149392        0.8506     0.85061
  339          H           0.159105        0.8409     0.84089
  340          H           0.186390        0.8136     0.81361
  341          H           0.149392        0.8506     0.85061
  342          H           0.149392        0.8506     0.85061
  343          H           0.159106        0.8409     0.84089
  344          H           0.159106        0.8409     0.84089
  345          H           0.186390        0.8136     0.81361
  346          H           0.186389        0.8136     0.81361
  347          H           0.159108        0.8409     0.84089
  348          H           0.186390        0.8136     0.81361
  349          H           0.149392        0.8506     0.85061
  350          H           0.149392        0.8506     0.85061
  351          H           0.159106        0.8409     0.84089
  352          H           0.186390        0.8136     0.81361
  353          H           0.149392        0.8506     0.85061
  354          H           0.159106        0.8409     0.84089
  355          H           0.186390        0.8136     0.81361
  356          H           0.186389        0.8136     0.81361
  357          H           0.159108        0.8409     0.84089
  358          H           0.149392        0.8506     0.85061
  359          H           0.159106        0.8409     0.84089
  360          H           0.186390        0.8136     0.81361


          ATOMIC ORBITAL ELECTRON POPULATIONS

     Atom    s        px        py        pz   
    1  C   1.15510   0.82104   0.94497   1.09156
    2  C   1.06729   1.05696   1.04862   1.05009
    3  C   1.05734   1.04915   1.00679   0.97672
    4  C   1.07600   0.98203   0.97683   0.97076
    5  C   1.06606   0.96645   0.97072   0.97102
    6  C   1.09458   0.84627   0.97937   1.02937
    7  C   1.05519   1.00315   0.98066   0.97861
    8  C   1.07339   0.91662   0.92528   0.97267
    9  C   1.15510   0.82103   1.09156   0.94497
   10  C   1.15510   1.09156   0.82104   0.94498
   11  C   1.06729   1.05009   1.05695   1.04862
   12  C   1.09241   0.95391   0.94507   1.04491
   13  C   1.09241   0.94507   0.95388   1.04492
   14  C   1.07686   0.97043   1.01837   0.86135
   15  C   1.07687   1.01836   0.97043   0.86135
   16  C   1.06765   0.99527   1.01024   0.96112
   17  C   1.06765   0.96112   0.99527   1.01024
   18  C   1.06765   1.01024   0.96112   0.99527
   19  C   1.05734   0.97672   1.04915   1.00679
   20  C   1.07600   0.97076   0.98203   0.97683
   21  C   1.06606   0.97102   0.96645   0.97072
   22  C   1.09458   0.84628   1.02937   0.97937
   23  C   1.09458   1.02936   0.84627   0.97937
   24  C   1.05519   0.97861   1.00315   0.98066
   25  C   1.07339   0.97267   0.91662   0.92528
   26  C   1.15510   1.09156   0.82104   0.94497
   27  C   1.06729   1.05009   1.05696   1.04862
   28  C   1.05734   0.97672   1.04915   1.00679
   29  C   1.07600   0.97076   0.98203   0.97683
   30  C   1.06606   0.97102   0.96645   0.97072
   31  C   1.09458   1.02937   0.84627   0.97937
   32  C   1.05519   0.97861   1.00315   0.98066
   33  C   1.07339   0.97267   0.91662   0.92528
   34  C   1.15510   1.09156   0.94497   0.82104
   35  C   1.06729   1.05009   1.04862   1.05696
   36  C   1.06729   1.05696   1.05009   1.04862
   37  C   1.09241   0.94507   1.04492   0.95390
   38  C   1.09241   0.95389   1.04492   0.94507
   39  C   1.07687   1.01836   0.86135   0.97043
   40  C   1.07686   0.97043   0.86135   1.01836
   41  C   1.06765   0.96112   1.01024   0.99527
   42  C   1.06765   0.99527   0.96112   1.01024
   43  C   1.05734   0.97672   1.00679   1.04915
   44  C   1.05734   1.04915   0.97672   1.00679
   45  C   1.07600   0.97076   0.97683   0.98203
   46  C   1.07600   0.97683   0.98203   0.97076
   47  C   1.06606   0.97072   0.96646   0.97102
   48  C   1.06606   0.97102   0.97072   0.96646
   49  C   1.06606   0.96646   0.97102   0.97072
   50  C   1.09458   1.02937   0.97937   0.84627
   51  C   1.05519   0.97861   0.98066   1.00315
   52  C   1.07340   0.97267   0.92527   0.91661
   53  C   1.07339   0.91662   0.97267   0.92527
   54  C   1.05519   0.98066   1.00314   0.97861
   55  C   1.15510   0.94498   1.09156   0.82104
   56  C   1.15510   0.94497   0.82103   1.09156
   57  C   1.06729   1.04862   1.05009   1.05695
   58  C   1.09241   1.04492   0.94507   0.95388
   59  C   1.09241   1.04491   0.95391   0.94507
   60  C   1.07687   0.86135   1.01836   0.97043
   61  C   1.07686   0.86135   0.97043   1.01837
   62  C   1.06765   0.99527   1.01024   0.96112
   63  C   1.06765   0.96112   0.99527   1.01024
   64  C   1.06765   1.01024   0.96112   0.99527
   65  C   1.05734   1.00679   0.97672   1.04915
   66  C   1.07600   0.97683   0.97076   0.98203
   67  C   1.06606   0.97072   0.97102   0.96645
   68  C   1.09458   0.97937   1.02936   0.84627
   69  C   1.09458   0.97937   0.84628   1.02937
   70  C   1.05519   0.98066   0.97861   1.00315
   71  C   1.07339   0.92528   0.97267   0.91662
   72  C   1.09241   0.95389   1.04492   0.94507
   73  C   1.07686   1.01837   0.86135   0.97043
   74  C   1.05734   1.04916   1.00679   0.97672
   75  C   1.07600   0.98202   0.97683   0.97075
   76  C   1.06606   0.96645   0.97072   0.97102
   77  C   1.09458   0.84627   0.97937   1.02937
   78  C   1.05519   1.00315   0.98066   0.97861
   79  C   1.05519   1.00314   0.97860   0.98066
   80  C   1.06729   1.04863   1.05696   1.05009
   81  C   1.06765   1.01024   0.99527   0.96112
   82  C   1.05734   1.00679   1.04915   0.97672
   83  C   1.07600   0.98204   0.97076   0.97683
   84  C   1.07340   0.92527   0.91661   0.97267
   85  C   1.15510   0.94497   1.09156   0.82104
   86  C   1.06729   1.04862   1.05009   1.05696
   87  C   1.05734   1.00679   0.97672   1.04915
   88  C   1.07600   0.97683   0.97076   0.98203
   89  C   1.06606   0.97072   0.97102   0.96645
   90  C   1.09458   0.97937   1.02937   0.84627
   91  C   1.05519   0.98066   0.97861   1.00315
   92  C   1.07339   0.92528   0.97267   0.91662
   93  C   1.15510   0.94497   0.82104   1.09156
   94  C   1.06729   1.05009   1.04862   1.05696
   95  C   1.06729   1.04862   1.05696   1.05009
   96  C   1.09241   1.04492   0.94507   0.95389
   97  C   1.09241   1.04492   0.95390   0.94507
   98  C   1.07686   0.86135   1.01836   0.97043
   99  C   1.07687   0.86135   0.97043   1.01836
  100  C   1.06765   1.01024   0.99527   0.96112
  101  C   1.06765   0.96112   1.01024   0.99527
  102  C   1.05734   0.97672   1.00679   1.04915
  103  C   1.05734   1.00679   1.04915   0.97672
  104  C   1.07600   0.98203   0.97076   0.97683
  105  C   1.07600   0.97683   0.98203   0.97076
  106  C   1.06606   0.97072   0.96646   0.97102
  107  C   1.06606   0.97102   0.97072   0.96646
  108  C   1.06606   0.96646   0.97102   0.97072
  109  C   1.09458   0.97937   0.84627   1.02937
  110  C   1.05519   0.98066   1.00315   0.97861
  111  C   1.07339   0.97267   0.92527   0.91662
  112  C   1.07340   0.92527   0.91661   0.97267
  113  C   1.05519   1.00314   0.97861   0.98066
  114  C   1.09241   1.04492   0.94507   0.95389
  115  C   1.07686   0.86135   0.97043   1.01837
  116  C   1.05734   1.00679   0.97672   1.04916
  117  C   1.07600   0.97683   0.97075   0.98202
  118  C   1.06606   0.97072   0.97102   0.96645
  119  C   1.09458   0.97937   1.02937   0.84627
  120  C   1.05519   0.98066   0.97861   1.00315
  121  C   1.15510   0.82104   1.09156   0.94497
  122  C   1.06729   1.05696   1.05009   1.04862
  123  C   1.06729   1.04862   1.05696   1.05009
  124  C   1.09241   0.95390   0.94507   1.04492
  125  C   1.09241   0.94507   0.95389   1.04492
  126  C   1.07687   0.97043   1.01836   0.86135
  127  C   1.07686   1.01836   0.97043   0.86135
  128  C   1.06765   1.01024   0.99527   0.96112
  129  C   1.06765   0.99527   0.96112   1.01024
  130  C   1.05734   1.04915   0.97672   1.00679
  131  C   1.05734   1.00679   1.04915   0.97672
  132  C   1.07600   0.97076   0.97683   0.98203
  133  C   1.07600   0.98203   0.97076   0.97683
  134  C   1.06606   0.97072   0.96646   0.97102
  135  C   1.06606   0.97102   0.97072   0.96646
  136  C   1.06606   0.96646   0.97102   0.97072
  137  C   1.09458   0.84627   1.02937   0.97937
  138  C   1.05519   1.00315   0.97861   0.98066
  139  C   1.07340   0.91661   0.97267   0.92527
  140  C   1.07339   0.92527   0.91662   0.97267
  141  C   1.05519   0.97861   0.98066   1.00314
  142  C   1.07339   0.92527   0.97267   0.91662
  143  C   1.15510   0.94497   1.09156   0.82104
  144  C   1.15510   1.09156   0.94497   0.82104
  145  C   1.15510   0.94497   0.82104   1.09156
  146  C   1.06729   1.04862   1.05009   1.05696
  147  C   1.06729   1.05009   1.04862   1.05696
  148  C   1.09241   0.94507   1.04492   0.95390
  149  C   1.09240   1.04492   0.95390   0.94507
  150  C   1.07687   0.86135   1.01836   0.97043
  151  C   1.07687   0.97043   0.86135   1.01836
  152  C   1.06765   0.96112   1.01024   0.99527
  153  C   1.05734   0.97672   1.00679   1.04915
  154  C   1.07600   0.97683   0.98203   0.97076
  155  C   1.09458   1.02937   0.97937   0.84627
  156  C   1.09458   0.97937   0.84627   1.02937
  157  C   1.05519   0.98066   1.00314   0.97861
  158  C   1.07340   0.97267   0.92527   0.91661
  159  C   1.07339   0.91662   0.92527   0.97267
  160  C   1.15510   1.09156   0.94497   0.82104
  161  C   1.15510   0.82104   0.94497   1.09156
  162  C   1.15510   0.82104   1.09156   0.94497
  163  C   1.06729   1.05696   1.04862   1.05009
  164  C   1.06729   1.05696   1.05009   1.04862
  165  C   1.09240   0.94507   1.04492   0.95390
  166  C   1.09241   0.95390   0.94507   1.04492
  167  C   1.07687   0.97043   0.86135   1.01836
  168  C   1.07687   1.01836   0.97043   0.86135
  169  C   1.06765   0.99527   0.96112   1.01024
  170  C   1.05734   1.04915   0.97672   1.00679
  171  C   1.07600   0.97076   0.97683   0.98203
  172  C   1.09458   1.02937   0.97937   0.84627
  173  C   1.09458   0.84627   1.02937   0.97937
  174  C   1.05519   0.97861   0.98066   1.00314
  175  C   1.07340   0.91661   0.97267   0.92527
  176  C   1.15510   0.82104   0.94497   1.09156
  177  C   1.06729   1.05696   1.04862   1.05009
  178  C   1.09241   0.94507   0.95389   1.04492
  179  C   1.07686   0.97043   1.01836   0.86135
  180  C   1.07339   0.91662   0.92527   0.97267
  181  C   1.15510   1.09156   0.94497   0.82103
  182  C   1.15510   0.82104   0.94498   1.09156
  183  C   1.06729   1.05695   1.04862   1.05009
  184  C   1.09241   0.94507   1.04491   0.95391
  185  C   1.09241   0.95388   1.04492   0.94507
  186  C   1.07686   1.01837   0.86135   0.97043
  187  C   1.07687   0.97043   0.86135   1.01836
  188  C   1.06765   0.99527   1.01024   0.96112
  189  C   1.06765   0.96112   0.99527   1.01024
  190  C   1.06765   1.01024   0.96112   0.99527
  191  C   1.05734   1.04915   1.00679   0.97672
  192  C   1.07600   0.98203   0.97683   0.97076
  193  C   1.06606   0.96645   0.97072   0.97102
  194  C   1.09458   1.02937   0.97937   0.84628
  195  C   1.09458   0.84627   0.97937   1.02936
  196  C   1.05519   1.00315   0.98066   0.97861
  197  C   1.07339   0.91662   0.92528   0.97267
  198  C   1.05519   0.97860   0.98066   1.00314
  199  C   1.06729   1.05696   1.05009   1.04863
  200  C   1.06765   0.99527   0.96112   1.01024
  201  C   1.05734   1.04915   0.97672   1.00679
  202  C   1.07600   0.97076   0.97683   0.98204
  203  C   1.07340   0.91661   0.97267   0.92527
  204  C   1.09241   0.94507   0.95389   1.04492
  205  C   1.07686   0.97043   1.01837   0.86135
  206  C   1.05734   0.97672   1.04916   1.00679
  207  C   1.07600   0.97075   0.98202   0.97683
  208  C   1.06606   0.97102   0.96645   0.97072
  209  C   1.09458   1.02937   0.84627   0.97937
  210  C   1.05519   0.97861   1.00315   0.98066
  211  C   1.07339   0.97267   0.91662   0.92527
  212  C   1.15510   0.82104   1.09156   0.94497
  213  C   1.15510   0.94497   0.82104   1.09156
  214  C   1.15510   1.09156   0.82104   0.94497
  215  C   1.06729   1.04862   1.05696   1.05009
  216  C   1.06729   1.05009   1.05696   1.04862
  217  C   1.09240   0.95390   0.94507   1.04492
  218  C   1.09241   1.04492   0.95390   0.94507
  219  C   1.07687   0.86135   1.01836   0.97043
  220  C   1.07687   1.01836   0.97043   0.86135
  221  C   1.06765   1.01024   0.99527   0.96112
  222  C   1.05734   1.00679   1.04915   0.97672
  223  C   1.07600   0.98203   0.97076   0.97683
  224  C   1.09458   0.84627   1.02937   0.97937
  225  C   1.09458   0.97937   0.84627   1.02937
  226  C   1.05519   1.00314   0.97861   0.98066
  227  C   1.07340   0.92527   0.91661   0.97267
  228  C   1.15510   0.94497   1.09156   0.82104
  229  C   1.06729   1.04862   1.05009   1.05696
  230  C   1.09241   0.95389   1.04492   0.94507
  231  C   1.07686   1.01836   0.86135   0.97043
  232  C   1.07339   0.92527   0.97267   0.91662
  233  C   1.05519   0.98066   1.00314   0.97860
  234  C   1.06729   1.05009   1.04863   1.05696
  235  C   1.06765   0.96112   1.01024   0.99527
  236  C   1.05734   0.97672   1.00679   1.04915
  237  C   1.07600   0.97683   0.98204   0.97076
  238  C   1.07340   0.97267   0.92527   0.91661
  239  C   1.15510   1.09156   0.82104   0.94497
  240  C   1.06729   1.05009   1.05696   1.04862
  241  C   1.09241   1.04492   0.94507   0.95389
  242  C   1.07686   0.86135   0.97043   1.01836
  243  C   1.07339   0.97267   0.91662   0.92527
  244  C   1.06765   0.99527   1.01024   0.96112
  245  C   1.06765   0.96112   0.99527   1.01024
  246  C   1.06765   1.01024   0.96112   0.99527
  247  C   1.05734   1.00679   0.97672   1.04915
  248  C   1.05734   1.04915   1.00679   0.97672
  249  C   1.05734   0.97672   1.04915   1.00679
  250  C   1.07600   0.97683   0.97076   0.98203
  251  C   1.07600   0.98203   0.97683   0.97076
  252  C   1.07600   0.97076   0.98203   0.97683
  253  C   1.06606   0.97072   0.96646   0.97102
  254  C   1.06606   0.96645   0.97072   0.97102
  255  C   1.06606   0.97102   0.97072   0.96646
  256  C   1.06606   0.97102   0.96645   0.97072
  257  C   1.06606   0.96646   0.97102   0.97072
  258  C   1.06606   0.97072   0.97102   0.96645
  259  C   1.09458   0.97937   1.02937   0.84627
  260  C   1.09458   0.84627   0.97937   1.02937
  261  C   1.09458   1.02937   0.84627   0.97937
  262  C   1.05519   0.98066   0.97861   1.00315
  263  C   1.05519   1.00315   0.98066   0.97861
  264  C   1.05519   0.97861   1.00315   0.98066
  265  B   0.56887   1.11981   0.71005   0.93791
  266  B   0.56888   1.11981   0.93790   0.71004
  267  B   0.56887   0.93791   1.11981   0.71006
  268  B   0.56887   0.93791   1.11981   0.71005
  269  B   0.56887   0.93791   0.71005   1.11981
  270  B   0.56887   0.71006   0.93791   1.11981
  271  B   0.56888   0.71004   1.11981   0.93790
  272  B   0.56887   0.71005   0.93791   1.11981
  273  B   0.56887   0.71005   1.11981   0.93791
  274  B   0.56887   1.11981   0.93791   0.71005
  275  B   0.56887   0.71005   0.93791   1.11981
  276  B   0.56887   0.93791   0.71005   1.11981
  277  B   0.56887   0.71005   1.11981   0.93791
  278  B   0.56887   0.93791   0.71005   1.11981
  279  B   0.56887   1.11981   0.71005   0.93791
  280  B   0.56887   1.11981   0.93791   0.71005
  281  B   0.56887   1.11981   0.71005   0.93791
  282  B   0.56888   0.93790   0.71004   1.11981
  283  B   0.56887   1.11981   0.71006   0.93791
  284  B   0.56887   1.11981   0.93791   0.71005
  285  B   0.56887   0.71005   1.11981   0.93791
  286  B   0.56887   0.93791   1.11981   0.71005
  287  B   0.56887   0.71005   0.93791   1.11981
  288  B   0.56887   0.93791   1.11981   0.71005
  289  H   0.85061
  290  H   0.84089
  291  H   0.81361
  292  H   0.84089
  293  H   0.85061
  294  H   0.85061
  295  H   0.84089
  296  H   0.81361
  297  H   0.85061
  298  H   0.84089
  299  H   0.81361
  300  H   0.81361
  301  H   0.85061
  302  H   0.85061
  303  H   0.84089
  304  H   0.84089
  305  H   0.81361
  306  H   0.84089
  307  H   0.85061
  308  H   0.85061
  309  H   0.84089
  310  H   0.81361
  311  H   0.81361
  312  H   0.81361
  313  H   0.84089
  314  H   0.85061
  315  H   0.84089
  316  H   0.81361
  317  H   0.81361
  318  H   0.81361
  319  H   0.81361
  320  H   0.85061
  321  H   0.85061
  322  H   0.84089
  323  H   0.81361
  324  H   0.85061
  325  H   0.85061
  326  H   0.84089
  327  H   0.84089
  328  H   0.81361
  329  H   0.85061
  330  H   0.85061
  331  H   0.84089
  332  H   0.81361
  333  H   0.85061
  334  H   0.84089
  335  H   0.81361
  336  H   0.84089
  337  H   0.85061
  338  H   0.85061
  339  H   0.84089
  340  H   0.81361
  341  H   0.85061
  342  H   0.85061
  343  H   0.84089
  344  H   0.84089
  345  H   0.81361
  346  H   0.81361
  347  H   0.84089
  348  H   0.81361
  349  H   0.85061
  350  H   0.85061
  351  H   0.84089
  352  H   0.81361
  353  H   0.85061
  354  H   0.84089
  355  H   0.81361
  356  H   0.81361
  357  H   0.84089
  358  H   0.85061
  359  H   0.84089
  360  H   0.81361

 **********************
 *                    *
 * JOB ENDED NORMALLY *
 *                    *
 **********************



 TOTAL JOB TIME:            97.67 SECONDS

 == MOPAC DONE ==
