 *******************************************************************************
 **                                                                           **
 **                              MOPAC v22.1.0                                **
 **                                                                           **
 *******************************************************************************
 **          Digital Object Identifier (DOI): 10.5281/zenodo.6511958          **
 **    Visit the DOI location for information on how to cite this program.    **
 *******************************************************************************

                              PM7 CALCULATION RESULTS

 *******************************************************************************
 *  CALCULATION DONE:                                Thu Feb  1 11:43:25 2024  *
 *  PM7        - The PM7 Hamiltonian to be used
 *  NOOPT      - DO NOT OPTIMIZE ANY COORDINATES
 *
 *
 *
 *                 CHARGE ON SYSTEM = 0
 *
 *
 *
 *  T=         - A TIME OF 172800.0 SECONDS REQUESTED
 *  DUMP=N     - RESTART FILE WRITTEN EVERY 7200.0 SECONDS REQUESTED
 *******************************************************************************
PM7 CHARGE=0 NOOPT


   ATOM   CHEMICAL          X               Y               Z
  NUMBER   SYMBOL      (ANGSTROMS)     (ANGSTROMS)     (ANGSTROMS)

     1       C         13.66368766      5.69094946      2.04035100   
     2       C         14.36705290      4.51797431      2.28176641   
     3       C         14.05656276      4.89023642      4.61467447   
     4       C         14.35740521      6.89472127      6.73390421   
     5       C         14.53101885      4.50718766      5.86358046   
     6       C         13.47017568      6.11935573      4.36729626   
     7       C         13.30107323      6.58327083      3.05273242   
     8       C         14.62280583      5.46108001      6.85266898   
     9       C         14.67915098      4.11643416      3.56769985   
    10       C         19.24683766      3.54279900      0.10779946   
    11       C         20.29224900      2.49738766      5.47535054   
    12       C         20.05083359      3.20075290      6.64832569   
    13       C         20.37566126      0.95545563      2.72375089   
    14       C         17.70490563      3.62621126      2.85939911   
    15       C         18.61665635      2.66092929      2.37214644   
    16       C         19.41037929      1.86720635      3.21100356   
    17       C         15.47993102      3.45650583      5.70521999   
    18       C         17.71792553      2.89026276      6.27606358   
    19       C         15.59869579      3.19110521      4.27157873   
    20       C         16.46901954      3.36471885      6.65911234   
    21       C         19.05332568      1.21585374      0.53620573   
    22       C         17.96530374      2.30387568      5.04694427   
    23       C         18.76490015      3.51285098      7.04986584   
    24       C         18.88422323      2.53041758      1.00012083   
    25       C         19.27986758      2.13477323      4.58302917   
    26       C          2.04035100     13.66368766      5.69094946   
    27       C          2.28176641     14.36705290      4.51797431   
    28       C          4.61467447     14.05656276      4.89023642   
    29       C          6.73390421     14.35740521      6.89472127   
    30       C          5.86358046     14.53101885      4.50718766   
    31       C          4.36729626     13.47017568      6.11935573   
    32       C          3.05273242     13.30107323      6.58327083   
    33       C          6.85266898     14.62280583      5.46108001   
    34       C          3.56769985     14.67915098      4.11643416   
    35       C         14.70909900     11.05850054      3.08576234   
    36       C         14.46768359     12.23147569      2.38239710   
    37       C          8.78390290      7.86491641      1.06517569   
    38       C         12.12175563      8.44254911      1.95693874   
    39       C         14.79251126      8.30690089      4.62769437   
    40       C         13.82722929      8.79415356      3.71594365   
    41       C         13.03350635      7.95529644      2.92222071   
    42       C         11.04423001     13.29294417      1.26951898   
    43       C          9.89678102     11.28836999      2.12664417   
    44       C         12.13477553     11.85921358      2.69288724   
    45       C          8.47341276     10.19782447      0.69289125   
    46       C         10.01554579      9.85472873      2.39204479   
    47       C         12.47787127     13.55834479      1.15075421   
    48       C         10.09033766     13.38473115      0.28043046   
    49       C         10.88586954     12.24226234      2.21840882   
    50       C          8.94786885     11.44673046      1.07596234   
    51       C         12.38215374     10.63009427      3.27927432   
    52       C         13.18175015     12.63301584      2.07029902   
    53       C          9.09600098      9.15084985      1.46671584   
    54       C         13.69671758     10.16617917      3.44837677   
    55       C          9.03965583     12.43581898      0.12206999   
    56       C          5.47535054     20.29224900      2.49738766   
    57       C          0.10779946     19.24683766      3.54279900   
    58       C          6.64832569     20.05083359      3.20075290   
    59       C          2.85939911     17.70490563      3.62621126   
    60       C          2.72375089     20.37566126      0.95545563   
    61       C          3.21100356     19.41037929      1.86720635   
    62       C          2.37214644     18.61665635      2.66092929   
    63       C          5.70521999     15.47993102      3.45650583   
    64       C          6.27606358     17.71792553      2.89026276   
    65       C          4.27157873     15.59869579      3.19110521   
    66       C          6.65911234     16.46901954      3.36471885   
    67       C          5.04694427     17.96530374      2.30387568   
    68       C          0.53620573     19.05332568      1.21585374   
    69       C          7.04986584     18.76490015      3.51285098   
    70       C          4.58302917     19.27986758      2.13477323   
    71       C          1.00012083     18.88422323      2.53041758   
    72       C          7.70979417     16.62738001      4.31363102   
    73       C          7.54008874     19.47320089      6.53860563   
    74       C          8.27603724     16.05653642      6.55162553   
    75       C          7.97519479     18.06102127      4.43239579   
    76       C          7.80158115     15.67348766      5.30271954   
    77       C          8.86242432     17.28565573      6.79900374   
    78       C         21.26742431     19.95020290      3.30138359   
    79       C         21.63968642     19.63971276      0.96847553   
    80       C         19.94055521     21.18184579      1.31157127   
    81       C         20.86588416     20.26230098      2.01545015   
    82       C          5.69094946      2.04035100     13.66368766   
    83       C          4.51797431      2.28176641     14.36705290   
    84       C          4.89023642      4.61467447     14.05656276   
    85       C          6.89472127      6.73390421     14.35740521   
    86       C          4.50718766      5.86358046     14.53101885   
    87       C          6.11935573      4.36729626     13.47017568   
    88       C          6.58327083      3.05273242     13.30107323   
    89       C          5.46108001      6.85266898     14.62280583   
    90       C          4.11643416      3.56769985     14.67915098   
    91       C         11.05850054      3.08576234     14.70909900   
    92       C          7.86491641      1.06517569      8.78390290   
    93       C         12.23147569      2.38239710     14.46768359   
    94       C          8.30690089      4.62769437     14.79251126   
    95       C          8.44254911      1.95693874     12.12175563   
    96       C          7.95529644      2.92222071     13.03350635   
    97       C          8.79415356      3.71594365     13.82722929   
    98       C         13.29294417      1.26951898     11.04423001   
    99       C         11.28836999      2.12664417      9.89678102   
   100       C         10.19782447      0.69289125      8.47341276   
   101       C         11.85921358      2.69288724     12.13477553   
   102       C         13.55834479      1.15075421     12.47787127   
   103       C          9.85472873      2.39204479     10.01554579   
   104       C         12.24226234      2.21840882     10.88586954   
   105       C         11.44673046      1.07596234      8.94786885   
   106       C         13.38473115      0.28043046     10.09033766   
   107       C         10.63009427      3.27927432     12.38215374   
   108       C          9.15084985      1.46671584      9.09600098   
   109       C         12.63301584      2.07029902     13.18175015   
   110       C         10.16617917      3.44837677     13.69671758   
   111       C         12.43581898      0.12206999      9.03965583   
   112       C         16.62738001      4.31363102      7.70979417   
   113       C         19.47320089      6.53860563      7.54008874   
   114       C         16.05653642      6.55162553      8.27603724   
   115       C         18.06102127      4.43239579      7.97519479   
   116       C         15.67348766      5.30271954      7.80158115   
   117       C         17.28565573      6.79900374      8.86242432   
   118       C          3.08576234     14.70909900     11.05850054   
   119       C          2.38239710     14.46768359     12.23147569   
   120       C          1.06517569      8.78390290      7.86491641   
   121       C          1.95693874     12.12175563      8.44254911   
   122       C          4.62769437     14.79251126      8.30690089   
   123       C          3.71594365     13.82722929      8.79415356   
   124       C          2.92222071     13.03350635      7.95529644   
   125       C          2.12664417      9.89678102     11.28836999   
   126       C          1.26951898     11.04423001     13.29294417   
   127       C          2.69288724     12.13477553     11.85921358   
   128       C          0.69289125      8.47341276     10.19782447   
   129       C          1.15075421     12.47787127     13.55834479   
   130       C          2.39204479     10.01554579      9.85472873   
   131       C          1.07596234      8.94786885     11.44673046   
   132       C          0.28043046     10.09033766     13.38473115   
   133       C          2.21840882     10.88586954     12.24226234   
   134       C          3.27927432     12.38215374     10.63009427   
   135       C          2.07029902     13.18175015     12.63301584   
   136       C          1.46671584      9.09600098      9.15084985   
   137       C          3.44837677     13.69671758     10.16617917   
   138       C          0.12206999      9.03965583     12.43581898   
   139       C         19.96045356      7.45035635      8.50537071   
   140       C         15.28273416      7.59860015      7.65344902   
   141       C         16.85724946      9.12594900      8.66891234   
   142       C         18.78980100     11.27409946     14.25206234   
   143       C         22.22480054      8.08053766      7.62350100   
   144       C         15.68427431      8.88453359      7.96554710   
   145       C         19.03121641     10.10112431     13.54869710   
   146       C         21.37714437     13.89005089     13.12323874   
   147       C         19.60884911      9.20936126     10.21084437   
   148       C         19.12159644      8.24407929      9.29909365   
   149       C         20.46539365     14.37730356     14.08852071   
   150       C         21.36412447     10.47338642     13.85918724   
   151       C         21.02102873      8.77425521     12.31705421   
   152       C         21.11674626     11.70250573     14.44557432   
   153       C         21.79639427      7.88702568      9.95044626   
   154       C         20.31714985      9.69958416     13.23659902   
   155       C         17.74957083      8.11356758      9.03152677   
   156       C         19.80218242     12.16642083     14.61467677   
   157       C         21.33247917      7.71792323      8.63588242   
   158       C         19.67167071     13.53844644     14.88224365   
   159       C          8.50537071     19.96045356      7.45035635   
   160       C          7.65344902     15.28273416      7.59860015   
   161       C          7.62350100     22.22480054      8.08053766   
   162       C          8.66891234     16.85724946      9.12594900   
   163       C         14.25206234     18.78980100     11.27409946   
   164       C          7.96554710     15.68427431      8.88453359   
   165       C         13.54869710     19.03121641     10.10112431   
   166       C         10.21084437     19.60884911      9.20936126   
   167       C         13.12323874     21.37714437     13.89005089   
   168       C          9.29909365     19.12159644      8.24407929   
   169       C         14.08852071     20.46539365     14.37730356   
   170       C         13.85918724     21.36412447     10.47338642   
   171       C         12.31705421     21.02102873      8.77425521   
   172       C          9.95044626     21.79639427      7.88702568   
   173       C         14.44557432     21.11674626     11.70250573   
   174       C         13.23659902     20.31714985      9.69958416   
   175       C          8.63588242     21.33247917      7.71792323   
   176       C          9.03152677     17.74957083      8.11356758   
   177       C         14.61467677     19.80218242     12.16642083   
   178       C         14.88224365     19.67167071     13.53844644   
   179       C         19.83521234     16.64165054     13.20665100   
   180       C         19.13184710     17.81462569     13.44806641   
   181       C         15.79399437     18.70638874     14.02569911   
   182       C         18.81974902     18.21616584     14.73399985   
   183       C         20.19782677     15.74932917     14.21903242   
   184       C          3.54279900      0.10779946     19.24683766   
   185       C          2.49738766      5.47535054     20.29224900   
   186       C          3.20075290      6.64832569     20.05083359   
   187       C          0.95545563      2.72375089     20.37566126   
   188       C          3.62621126      2.85939911     17.70490563   
   189       C          2.66092929      2.37214644     18.61665635   
   190       C          1.86720635      3.21100356     19.41037929   
   191       C          3.45650583      5.70521999     15.47993102   
   192       C          2.89026276      6.27606358     17.71792553   
   193       C          3.19110521      4.27157873     15.59869579   
   194       C          3.36471885      6.65911234     16.46901954   
   195       C          1.21585374      0.53620573     19.05332568   
   196       C          2.30387568      5.04694427     17.96530374   
   197       C          3.51285098      7.04986584     18.76490015   
   198       C          2.53041758      1.00012083     18.88422323   
   199       C          2.13477323      4.58302917     19.27986758   
   200       C         19.95020290      3.30138359     21.26742431   
   201       C         19.63971276      0.96847553     21.63968642   
   202       C         21.18184579      1.31157127     19.94055521   
   203       C         20.26230098      2.01545015     20.86588416   
   204       C          4.31363102      7.70979417     16.62738001   
   205       C          6.53860563      7.54008874     19.47320089   
   206       C          6.55162553      8.27603724     16.05653642   
   207       C          4.43239579      7.97519479     18.06102127   
   208       C          5.30271954      7.80158115     15.67348766   
   209       C          6.79900374      8.86242432     17.28565573   
   210       C          7.45035635      8.50537071     19.96045356   
   211       C          7.59860015      7.65344902     15.28273416   
   212       C          8.08053766      7.62350100     22.22480054   
   213       C         11.27409946     14.25206234     18.78980100   
   214       C          9.12594900      8.66891234     16.85724946   
   215       C         10.10112431     13.54869710     19.03121641   
   216       C          8.88453359      7.96554710     15.68427431   
   217       C          9.20936126     10.21084437     19.60884911   
   218       C         13.89005089     13.12323874     21.37714437   
   219       C         14.37730356     14.08852071     20.46539365   
   220       C          8.24407929      9.29909365     19.12159644   
   221       C         10.47338642     13.85918724     21.36412447   
   222       C          8.77425521     12.31705421     21.02102873   
   223       C          7.88702568      9.95044626     21.79639427   
   224       C         11.70250573     14.44557432     21.11674626   
   225       C          9.69958416     13.23659902     20.31714985   
   226       C          7.71792323      8.63588242     21.33247917   
   227       C         12.16642083     14.61467677     19.80218242   
   228       C          8.11356758      9.03152677     17.74957083   
   229       C         13.53844644     14.88224365     19.67167071   
   230       C         16.64165054     13.20665100     19.83521234   
   231       C         17.81462569     13.44806641     19.13184710   
   232       C         18.70638874     14.02569911     15.79399437   
   233       C         18.21616584     14.73399985     18.81974902   
   234       C         15.74932917     14.21903242     20.19782677   
   235       C          3.30138359     21.26742431     19.95020290   
   236       C          0.96847553     21.63968642     19.63971276   
   237       C          1.31157127     19.94055521     21.18184579   
   238       C          2.01545015     20.86588416     20.26230098   
   239       C         13.20665100     19.83521234     16.64165054   
   240       C         13.44806641     19.13184710     17.81462569   
   241       C         14.02569911     15.79399437     18.70638874   
   242       C         14.73399985     18.81974902     18.21616584   
   243       C         14.21903242     20.19782677     15.74932917   
   244       C         20.20595583     21.06308102     22.21053001   
   245       C         21.06308102     22.21053001     20.20595583   
   246       C         22.21053001     20.20595583     21.06308102   
   247       C         18.01896898     18.87609417     16.87151999   
   248       C         16.87151999     18.01896898     18.87609417   
   249       C         18.87609417     16.87151999     18.01896898   
   250       C         17.44236358     15.78097447     19.44233724   
   251       C         19.44233724     17.44236358     15.78097447   
   252       C         15.78097447     19.44233724     17.44236358   
   253       C         15.43787873     17.90020421     19.14149479   
   254       C         19.14149479     15.43787873     17.90020421   
   255       C         17.90020421     19.14149479     15.43787873   
   256       C         21.25663766     20.11416885     22.05216954   
   257       C         18.96788115     17.82541234     17.02988046   
   258       C         22.05216954     21.25663766     20.11416885   
   259       C         17.02988046     18.96788115     17.82541234   
   260       C         20.11416885     22.05216954     21.25663766   
   261       C         17.82541234     17.02988046     18.96788115   
   262       C         16.21324427     15.53359626     20.02872432   
   263       C         20.02872432     16.21324427     15.53359626   
   264       C         15.53359626     20.02872432     16.21324427   
   265       B         14.15181130      7.08352107      5.26357049   
   266       B         19.73496130      0.31957951      1.50037107   
   267       B         17.06902951      2.98551130      4.08277893   
   268       B          5.26357049     14.15181130      7.08352107   
   269       B         11.48587951      9.66592893      2.59763870   
   270       B          4.08277893     17.06902951      2.98551130   
   271       B          1.50037107     19.73496130      0.31957951   
   272       B          8.18078870     18.24982107      5.90272951   
   273       B          7.08352107      5.26357049     14.15181130   
   274       B          9.66592893      2.59763870     11.48587951   
   275       B         18.24982107      5.90272951      8.18078870   
   276       B          2.59763870     11.48587951      9.66592893   
   277       B         22.01302049     12.66667107     13.76393870   
   278       B         20.83222893      8.56866130     10.84672049   
   279       B         10.84672049     20.83222893      8.56866130   
   280       B         13.76393870     22.01302049     12.66667107   
   281       B          0.31957951      1.50037107     19.73496130   
   282       B          2.98551130      4.08277893     17.06902951   
   283       B          5.90272951      8.18078870     18.24982107   
   284       B          8.56866130     10.84672049     20.83222893   
   285       B         12.66667107     13.76393870     22.01302049   
   286       B         15.24907893     16.42987049     19.34708870   
   287       B         19.34708870     15.24907893     16.42987049   
   288       B         16.42987049     19.34708870     15.24907893   
   289       H         13.46166696      5.96856601      1.00590497   
   290       H          9.13854459      7.01942650      1.65448834   
   291       H         14.72169459      3.92866166      1.43629884   
   292       H         21.32669503      2.29536696      5.19773399   
   293       H         19.04481696      4.57724503      0.38541601   
   294       H         20.89632350      3.55539459      7.23763834   
   295       H         21.40608742      0.76122900      3.18156919   
   296       H         17.51067900      4.65663742      2.40158081   
   297       H         19.93101919      6.34437900      6.50966258   
   298       H          1.00590497     13.46166696      5.96856601   
   299       H          1.43629884     14.72169459      3.92866166   
   300       H          1.65448834      9.13854459      7.01942650   
   301       H         11.92752900      7.98473081      0.92651258   
   302       H         15.82293742      8.76471919      4.82192100   
   303       H         21.94718399      7.87851696      6.58905497   
   304       H         15.74354503     10.78088399      3.28778304   
   305       H         15.31317350     12.82078834      2.02775541   
   306       H          5.19773399     21.32669503      2.29536696   
   307       H          0.38541601     19.04481696      4.57724503   
   308       H          7.23763834     20.89632350      3.55539459   
   309       H          2.40158081     17.51067900      4.65663742   
   310       H          3.18156919     21.40608742      0.76122900   
   311       H          6.50966258     19.93101919      6.34437900   
   312       H         20.67811166     20.30484459      4.14687350   
   313       H          5.96856601      1.00590497     13.46166696   
   314       H          3.92866166      1.43629884     14.72169459   
   315       H          7.01942650      1.65448834      9.13854459   
   316       H          7.98473081      0.92651258     11.92752900   
   317       H          0.92651258     11.92752900      7.98473081   
   318       H         17.13486601     10.16039503      8.87093304   
   319       H         17.75535497     11.55171601     14.45408304   
   320       H         15.09496166      9.73002350      7.61090541   
   321       H         18.18572650      9.51181166     13.19405541   
   322       H         19.15103081     10.23978742     10.40507100   
   323       H         21.57137100     14.34786919     12.09281258   
   324       H          4.82192100     15.82293742      8.76471919   
   325       H          3.28778304     15.74354503     10.78088399   
   326       H          6.58905497     21.94718399      7.87851696   
   327       H          2.02775541     15.31317350     12.82078834   
   328       H         14.45408304     17.75535497     11.55171601   
   329       H          8.87093304     17.13486601     10.16039503   
   330       H         13.19405541     18.18572650      9.51181166   
   331       H          7.61090541     15.09496166      9.73002350   
   332       H         10.40507100     19.15103081     10.23978742   
   333       H         12.09281258     21.57137100     14.34786919   
   334       H         20.03723304     16.36403399     12.17220497   
   335       H         18.77720541     18.40393834     12.60257650   
   336       H         15.98822100     17.67596258     13.56788081   
   337       H          2.29536696      5.19773399     21.32669503   
   338       H          4.57724503      0.38541601     19.04481696   
   339       H          3.55539459      7.23763834     20.89632350   
   340       H          0.76122900      3.18156919     21.40608742   
   341       H          4.65663742      2.40158081     17.51067900   
   342       H          6.34437900      6.50966258     19.93101919   
   343       H          8.76471919      4.82192100     15.82293742   
   344       H          7.87851696      6.58905497     21.94718399   
   345       H         10.78088399      3.28778304     15.74354503   
   346       H         12.82078834      2.02775541     15.31317350   
   347       H         20.30484459      4.14687350     20.67811166   
   348       H         10.16039503      8.87093304     17.13486601   
   349       H         11.55171601     14.45408304     17.75535497   
   350       H          9.73002350      7.61090541     15.09496166   
   351       H          9.51181166     13.19405541     18.18572650   
   352       H         10.23978742     10.40507100     19.15103081   
   353       H         14.34786919     12.09281258     21.57137100   
   354       H         16.36403399     12.17220497     20.03723304   
   355       H         18.40393834     12.60257650     18.77720541   
   356       H         17.67596258     13.56788081     15.98822100   
   357       H          4.14687350     20.67811166     20.30484459   
   358       H         12.17220497     20.03723304     16.36403399   
   359       H         12.60257650     18.77720541     18.40393834   
   360       H         13.56788081     15.98822100     17.67596258   
   361      Tv         22.33260000      0.00000000      0.00000000   
   362      Tv          0.00000000     22.33260000      0.00000000   
   363      Tv          0.00000000      0.00000000     22.33260000   


                   THE SYSTEM IS A SOLID


                UNIT CELL TRANSLATION VECTORS

              X                Y              Z
    T1 =    22.3326000      0.0000000      0.0000000
    T2 =     0.0000000     22.3326000      0.0000000
    T3 =     0.0000000      0.0000000     22.3326000


          CARTESIAN COORDINATES 

    NO.       ATOM           X           Y           Z

     1         C         13.6637      5.6909      2.0404
     2         C         14.3671      4.5180      2.2818
     3         C         14.0566      4.8902      4.6147
     4         C         14.3574      6.8947      6.7339
     5         C         14.5310      4.5072      5.8636
     6         C         13.4702      6.1194      4.3673
     7         C         13.3011      6.5833      3.0527
     8         C         14.6228      5.4611      6.8527
     9         C         14.6792      4.1164      3.5677
    10         C         19.2468      3.5428      0.1078
    11         C         20.2922      2.4974      5.4754
    12         C         20.0508      3.2008      6.6483
    13         C         20.3757      0.9555      2.7238
    14         C         17.7049      3.6262      2.8594
    15         C         18.6167      2.6609      2.3721
    16         C         19.4104      1.8672      3.2110
    17         C         15.4799      3.4565      5.7052
    18         C         17.7179      2.8903      6.2761
    19         C         15.5987      3.1911      4.2716
    20         C         16.4690      3.3647      6.6591
    21         C         19.0533      1.2159      0.5362
    22         C         17.9653      2.3039      5.0469
    23         C         18.7649      3.5129      7.0499
    24         C         18.8842      2.5304      1.0001
    25         C         19.2799      2.1348      4.5830
    26         C          2.0404     13.6637      5.6909
    27         C          2.2818     14.3671      4.5180
    28         C          4.6147     14.0566      4.8902
    29         C          6.7339     14.3574      6.8947
    30         C          5.8636     14.5310      4.5072
    31         C          4.3673     13.4702      6.1194
    32         C          3.0527     13.3011      6.5833
    33         C          6.8527     14.6228      5.4611
    34         C          3.5677     14.6792      4.1164
    35         C         14.7091     11.0585      3.0858
    36         C         14.4677     12.2315      2.3824
    37         C          8.7839      7.8649      1.0652
    38         C         12.1218      8.4425      1.9569
    39         C         14.7925      8.3069      4.6277
    40         C         13.8272      8.7942      3.7159
    41         C         13.0335      7.9553      2.9222
    42         C         11.0442     13.2929      1.2695
    43         C          9.8968     11.2884      2.1266
    44         C         12.1348     11.8592      2.6929
    45         C          8.4734     10.1978      0.6929
    46         C         10.0155      9.8547      2.3920
    47         C         12.4779     13.5583      1.1508
    48         C         10.0903     13.3847      0.2804
    49         C         10.8859     12.2423      2.2184
    50         C          8.9479     11.4467      1.0760
    51         C         12.3822     10.6301      3.2793
    52         C         13.1818     12.6330      2.0703
    53         C          9.0960      9.1508      1.4667
    54         C         13.6967     10.1662      3.4484
    55         C          9.0397     12.4358      0.1221
    56         C          5.4754     20.2922      2.4974
    57         C          0.1078     19.2468      3.5428
    58         C          6.6483     20.0508      3.2008
    59         C          2.8594     17.7049      3.6262
    60         C          2.7238     20.3757      0.9555
    61         C          3.2110     19.4104      1.8672
    62         C          2.3721     18.6167      2.6609
    63         C          5.7052     15.4799      3.4565
    64         C          6.2761     17.7179      2.8903
    65         C          4.2716     15.5987      3.1911
    66         C          6.6591     16.4690      3.3647
    67         C          5.0469     17.9653      2.3039
    68         C          0.5362     19.0533      1.2159
    69         C          7.0499     18.7649      3.5129
    70         C          4.5830     19.2799      2.1348
    71         C          1.0001     18.8842      2.5304
    72         C          7.7098     16.6274      4.3136
    73         C          7.5401     19.4732      6.5386
    74         C          8.2760     16.0565      6.5516
    75         C          7.9752     18.0610      4.4324
    76         C          7.8016     15.6735      5.3027
    77         C          8.8624     17.2857      6.7990
    78         C         21.2674     19.9502      3.3014
    79         C         21.6397     19.6397      0.9685
    80         C         19.9406     21.1818      1.3116
    81         C         20.8659     20.2623      2.0155
    82         C          5.6909      2.0404     13.6637
    83         C          4.5180      2.2818     14.3671
    84         C          4.8902      4.6147     14.0566
    85         C          6.8947      6.7339     14.3574
    86         C          4.5072      5.8636     14.5310
    87         C          6.1194      4.3673     13.4702
    88         C          6.5833      3.0527     13.3011
    89         C          5.4611      6.8527     14.6228
    90         C          4.1164      3.5677     14.6792
    91         C         11.0585      3.0858     14.7091
    92         C          7.8649      1.0652      8.7839
    93         C         12.2315      2.3824     14.4677
    94         C          8.3069      4.6277     14.7925
    95         C          8.4425      1.9569     12.1218
    96         C          7.9553      2.9222     13.0335
    97         C          8.7942      3.7159     13.8272
    98         C         13.2929      1.2695     11.0442
    99         C         11.2884      2.1266      9.8968
   100         C         10.1978      0.6929      8.4734
   101         C         11.8592      2.6929     12.1348
   102         C         13.5583      1.1508     12.4779
   103         C          9.8547      2.3920     10.0155
   104         C         12.2423      2.2184     10.8859
   105         C         11.4467      1.0760      8.9479
   106         C         13.3847      0.2804     10.0903
   107         C         10.6301      3.2793     12.3822
   108         C          9.1508      1.4667      9.0960
   109         C         12.6330      2.0703     13.1818
   110         C         10.1662      3.4484     13.6967
   111         C         12.4358      0.1221      9.0397
   112         C         16.6274      4.3136      7.7098
   113         C         19.4732      6.5386      7.5401
   114         C         16.0565      6.5516      8.2760
   115         C         18.0610      4.4324      7.9752
   116         C         15.6735      5.3027      7.8016
   117         C         17.2857      6.7990      8.8624
   118         C          3.0858     14.7091     11.0585
   119         C          2.3824     14.4677     12.2315
   120         C          1.0652      8.7839      7.8649
   121         C          1.9569     12.1218      8.4425
   122         C          4.6277     14.7925      8.3069
   123         C          3.7159     13.8272      8.7942
   124         C          2.9222     13.0335      7.9553
   125         C          2.1266      9.8968     11.2884
   126         C          1.2695     11.0442     13.2929
   127         C          2.6929     12.1348     11.8592
   128         C          0.6929      8.4734     10.1978
   129         C          1.1508     12.4779     13.5583
   130         C          2.3920     10.0155      9.8547
   131         C          1.0760      8.9479     11.4467
   132         C          0.2804     10.0903     13.3847
   133         C          2.2184     10.8859     12.2423
   134         C          3.2793     12.3822     10.6301
   135         C          2.0703     13.1818     12.6330
   136         C          1.4667      9.0960      9.1508
   137         C          3.4484     13.6967     10.1662
   138         C          0.1221      9.0397     12.4358
   139         C         19.9605      7.4504      8.5054
   140         C         15.2827      7.5986      7.6534
   141         C         16.8572      9.1259      8.6689
   142         C         18.7898     11.2741     14.2521
   143         C         22.2248      8.0805      7.6235
   144         C         15.6843      8.8845      7.9655
   145         C         19.0312     10.1011     13.5487
   146         C         21.3771     13.8901     13.1232
   147         C         19.6088      9.2094     10.2108
   148         C         19.1216      8.2441      9.2991
   149         C         20.4654     14.3773     14.0885
   150         C         21.3641     10.4734     13.8592
   151         C         21.0210      8.7743     12.3171
   152         C         21.1167     11.7025     14.4456
   153         C         21.7964      7.8870      9.9504
   154         C         20.3171      9.6996     13.2366
   155         C         17.7496      8.1136      9.0315
   156         C         19.8022     12.1664     14.6147
   157         C         21.3325      7.7179      8.6359
   158         C         19.6717     13.5384     14.8822
   159         C          8.5054     19.9605      7.4504
   160         C          7.6534     15.2827      7.5986
   161         C          7.6235     22.2248      8.0805
   162         C          8.6689     16.8572      9.1259
   163         C         14.2521     18.7898     11.2741
   164         C          7.9655     15.6843      8.8845
   165         C         13.5487     19.0312     10.1011
   166         C         10.2108     19.6088      9.2094
   167         C         13.1232     21.3771     13.8901
   168         C          9.2991     19.1216      8.2441
   169         C         14.0885     20.4654     14.3773
   170         C         13.8592     21.3641     10.4734
   171         C         12.3171     21.0210      8.7743
   172         C          9.9504     21.7964      7.8870
   173         C         14.4456     21.1167     11.7025
   174         C         13.2366     20.3171      9.6996
   175         C          8.6359     21.3325      7.7179
   176         C          9.0315     17.7496      8.1136
   177         C         14.6147     19.8022     12.1664
   178         C         14.8822     19.6717     13.5384
   179         C         19.8352     16.6417     13.2067
   180         C         19.1318     17.8146     13.4481
   181         C         15.7940     18.7064     14.0257
   182         C         18.8197     18.2162     14.7340
   183         C         20.1978     15.7493     14.2190
   184         C          3.5428      0.1078     19.2468
   185         C          2.4974      5.4754     20.2922
   186         C          3.2008      6.6483     20.0508
   187         C          0.9555      2.7238     20.3757
   188         C          3.6262      2.8594     17.7049
   189         C          2.6609      2.3721     18.6167
   190         C          1.8672      3.2110     19.4104
   191         C          3.4565      5.7052     15.4799
   192         C          2.8903      6.2761     17.7179
   193         C          3.1911      4.2716     15.5987
   194         C          3.3647      6.6591     16.4690
   195         C          1.2159      0.5362     19.0533
   196         C          2.3039      5.0469     17.9653
   197         C          3.5129      7.0499     18.7649
   198         C          2.5304      1.0001     18.8842
   199         C          2.1348      4.5830     19.2799
   200         C         19.9502      3.3014     21.2674
   201         C         19.6397      0.9685     21.6397
   202         C         21.1818      1.3116     19.9406
   203         C         20.2623      2.0155     20.8659
   204         C          4.3136      7.7098     16.6274
   205         C          6.5386      7.5401     19.4732
   206         C          6.5516      8.2760     16.0565
   207         C          4.4324      7.9752     18.0610
   208         C          5.3027      7.8016     15.6735
   209         C          6.7990      8.8624     17.2857
   210         C          7.4504      8.5054     19.9605
   211         C          7.5986      7.6534     15.2827
   212         C          8.0805      7.6235     22.2248
   213         C         11.2741     14.2521     18.7898
   214         C          9.1259      8.6689     16.8572
   215         C         10.1011     13.5487     19.0312
   216         C          8.8845      7.9655     15.6843
   217         C          9.2094     10.2108     19.6088
   218         C         13.8901     13.1232     21.3771
   219         C         14.3773     14.0885     20.4654
   220         C          8.2441      9.2991     19.1216
   221         C         10.4734     13.8592     21.3641
   222         C          8.7743     12.3171     21.0210
   223         C          7.8870      9.9504     21.7964
   224         C         11.7025     14.4456     21.1167
   225         C          9.6996     13.2366     20.3171
   226         C          7.7179      8.6359     21.3325
   227         C         12.1664     14.6147     19.8022
   228         C          8.1136      9.0315     17.7496
   229         C         13.5384     14.8822     19.6717
   230         C         16.6417     13.2067     19.8352
   231         C         17.8146     13.4481     19.1318
   232         C         18.7064     14.0257     15.7940
   233         C         18.2162     14.7340     18.8197
   234         C         15.7493     14.2190     20.1978
   235         C          3.3014     21.2674     19.9502
   236         C          0.9685     21.6397     19.6397
   237         C          1.3116     19.9406     21.1818
   238         C          2.0155     20.8659     20.2623
   239         C         13.2067     19.8352     16.6417
   240         C         13.4481     19.1318     17.8146
   241         C         14.0257     15.7940     18.7064
   242         C         14.7340     18.8197     18.2162
   243         C         14.2190     20.1978     15.7493
   244         C         20.2060     21.0631     22.2105
   245         C         21.0631     22.2105     20.2060
   246         C         22.2105     20.2060     21.0631
   247         C         18.0190     18.8761     16.8715
   248         C         16.8715     18.0190     18.8761
   249         C         18.8761     16.8715     18.0190
   250         C         17.4424     15.7810     19.4423
   251         C         19.4423     17.4424     15.7810
   252         C         15.7810     19.4423     17.4424
   253         C         15.4379     17.9002     19.1415
   254         C         19.1415     15.4379     17.9002
   255         C         17.9002     19.1415     15.4379
   256         C         21.2566     20.1142     22.0522
   257         C         18.9679     17.8254     17.0299
   258         C         22.0522     21.2566     20.1142
   259         C         17.0299     18.9679     17.8254
   260         C         20.1142     22.0522     21.2566
   261         C         17.8254     17.0299     18.9679
   262         C         16.2132     15.5336     20.0287
   263         C         20.0287     16.2132     15.5336
   264         C         15.5336     20.0287     16.2132
   265         B         14.1518      7.0835      5.2636
   266         B         19.7350      0.3196      1.5004
   267         B         17.0690      2.9855      4.0828
   268         B          5.2636     14.1518      7.0835
   269         B         11.4859      9.6659      2.5976
   270         B          4.0828     17.0690      2.9855
   271         B          1.5004     19.7350      0.3196
   272         B          8.1808     18.2498      5.9027
   273         B          7.0835      5.2636     14.1518
   274         B          9.6659      2.5976     11.4859
   275         B         18.2498      5.9027      8.1808
   276         B          2.5976     11.4859      9.6659
   277         B         22.0130     12.6667     13.7639
   278         B         20.8322      8.5687     10.8467
   279         B         10.8467     20.8322      8.5687
   280         B         13.7639     22.0130     12.6667
   281         B          0.3196      1.5004     19.7350
   282         B          2.9855      4.0828     17.0690
   283         B          5.9027      8.1808     18.2498
   284         B          8.5687     10.8467     20.8322
   285         B         12.6667     13.7639     22.0130
   286         B         15.2491     16.4299     19.3471
   287         B         19.3471     15.2491     16.4299
   288         B         16.4299     19.3471     15.2491
   289         H         13.4617      5.9686      1.0059
   290         H          9.1385      7.0194      1.6545
   291         H         14.7217      3.9287      1.4363
   292         H         21.3267      2.2954      5.1977
   293         H         19.0448      4.5772      0.3854
   294         H         20.8963      3.5554      7.2376
   295         H         21.4061      0.7612      3.1816
   296         H         17.5107      4.6566      2.4016
   297         H         19.9310      6.3444      6.5097
   298         H          1.0059     13.4617      5.9686
   299         H          1.4363     14.7217      3.9287
   300         H          1.6545      9.1385      7.0194
   301         H         11.9275      7.9847      0.9265
   302         H         15.8229      8.7647      4.8219
   303         H         21.9472      7.8785      6.5891
   304         H         15.7435     10.7809      3.2878
   305         H         15.3132     12.8208      2.0278
   306         H          5.1977     21.3267      2.2954
   307         H          0.3854     19.0448      4.5772
   308         H          7.2376     20.8963      3.5554
   309         H          2.4016     17.5107      4.6566
   310         H          3.1816     21.4061      0.7612
   311         H          6.5097     19.9310      6.3444
   312         H         20.6781     20.3048      4.1469
   313         H          5.9686      1.0059     13.4617
   314         H          3.9287      1.4363     14.7217
   315         H          7.0194      1.6545      9.1385
   316         H          7.9847      0.9265     11.9275
   317         H          0.9265     11.9275      7.9847
   318         H         17.1349     10.1604      8.8709
   319         H         17.7554     11.5517     14.4541
   320         H         15.0950      9.7300      7.6109
   321         H         18.1857      9.5118     13.1941
   322         H         19.1510     10.2398     10.4051
   323         H         21.5714     14.3479     12.0928
   324         H          4.8219     15.8229      8.7647
   325         H          3.2878     15.7435     10.7809
   326         H          6.5891     21.9472      7.8785
   327         H          2.0278     15.3132     12.8208
   328         H         14.4541     17.7554     11.5517
   329         H          8.8709     17.1349     10.1604
   330         H         13.1941     18.1857      9.5118
   331         H          7.6109     15.0950      9.7300
   332         H         10.4051     19.1510     10.2398
   333         H         12.0928     21.5714     14.3479
   334         H         20.0372     16.3640     12.1722
   335         H         18.7772     18.4039     12.6026
   336         H         15.9882     17.6760     13.5679
   337         H          2.2954      5.1977     21.3267
   338         H          4.5772      0.3854     19.0448
   339         H          3.5554      7.2376     20.8963
   340         H          0.7612      3.1816     21.4061
   341         H          4.6566      2.4016     17.5107
   342         H          6.3444      6.5097     19.9310
   343         H          8.7647      4.8219     15.8229
   344         H          7.8785      6.5891     21.9472
   345         H         10.7809      3.2878     15.7435
   346         H         12.8208      2.0278     15.3132
   347         H         20.3048      4.1469     20.6781
   348         H         10.1604      8.8709     17.1349
   349         H         11.5517     14.4541     17.7554
   350         H          9.7300      7.6109     15.0950
   351         H          9.5118     13.1941     18.1857
   352         H         10.2398     10.4051     19.1510
   353         H         14.3479     12.0928     21.5714
   354         H         16.3640     12.1722     20.0372
   355         H         18.4039     12.6026     18.7772
   356         H         17.6760     13.5679     15.9882
   357         H          4.1469     20.6781     20.3048
   358         H         12.1722     20.0372     16.3640
   359         H         12.6026     18.7772     18.4039
   360         H         13.5679     15.9882     17.6760

 General Reference for PM7:
 "Optimization of Parameters for Semiempirical Methods VI: More Modifications to the 
 NDDO Approximations and Re-optimization of Parameters", J. J. P. Stewart, J. Mol. Mod., 1:32, 19 (2013)
 https://link.springer.com/article/10.1007/s00894-012-1667-x

           Empirical Formula: C264 H72 B24  =   360 atoms



      RHF CALCULATION, NO. OF DOUBLY OCCUPIED LEVELS = 600


 -------------------------------------------------------------------------------
 PM7 CHARGE=0 NOOPT




     NO PARAMETERS MARKED FOR OPTIMIZATION, SO 1SCF WAS USED  
     SCF FIELD WAS ACHIEVED                                   


                              PM7 CALCULATION
                                                       MOPAC v22.1.0 Linux
                                                       Thu Feb  1 11:50:48 2024




          FINAL HEAT OF FORMATION =       3549.84976 KCAL/MOL =   14852.57139 KJ/MOL
          H.o.F. per unit cell    =        147.91041 KCAL, for 24 unit cells, unit cell = C11 H3 B1



          IONIZATION POTENTIAL    =          8.028370 EV
          HOMO LUMO ENERGIES (EV) =         -8.028 -4.203
          NO. OF FILLED LEVELS    =        600
          MOLECULAR WEIGHT        =       3502.9128

                   THE SYSTEM IS A SOLID


                UNIT CELL TRANSLATION VECTORS

              X                Y              Z
    T1 =    22.3326000      0.0000000      0.0000000
    T2 =     0.0000000     22.3326000      0.0000000
    T3 =     0.0000000      0.0000000     22.3326000

          VOLUME OF UNIT CELL     =      11138.273 CUBIC ANGSTROMS

          DENSITY                 =          0.522 GRAMS/CC
                              A   =         22.333 ANGSTROMS
                              B   =         22.333 ANGSTROMS
                              C   =         22.333 ANGSTROMS
                            ALPHA =         90.000 DEGREES
                            BETA  =         90.000 DEGREES
                            GAMMA =         90.000 DEGREES



          SCF CALCULATIONS        =          1

          WALL-CLOCK TIME         =          7 MINUTES AND 22.520 SECONDS
          COMPUTATION TIME        =          7 MINUTES AND 22.484 SECONDS




   ATOM   CHEMICAL          X               Y               Z
  NUMBER   SYMBOL      (ANGSTROMS)     (ANGSTROMS)     (ANGSTROMS)

     1       C         13.66368766      5.69094946      2.04035100   
     2       C         14.36705290      4.51797431      2.28176641   
     3       C         14.05656276      4.89023642      4.61467447   
     4       C         14.35740521      6.89472127      6.73390421   
     5       C         14.53101885      4.50718766      5.86358046   
     6       C         13.47017568      6.11935573      4.36729626   
     7       C         13.30107323      6.58327083      3.05273242   
     8       C         14.62280583      5.46108001      6.85266898   
     9       C         14.67915098      4.11643416      3.56769985   
    10       C         19.24683766      3.54279900      0.10779946   
    11       C         20.29224900      2.49738766      5.47535054   
    12       C         20.05083359      3.20075290      6.64832569   
    13       C         20.37566126      0.95545563      2.72375089   
    14       C         17.70490563      3.62621126      2.85939911   
    15       C         18.61665635      2.66092929      2.37214644   
    16       C         19.41037929      1.86720635      3.21100356   
    17       C         15.47993102      3.45650583      5.70521999   
    18       C         17.71792553      2.89026276      6.27606358   
    19       C         15.59869579      3.19110521      4.27157873   
    20       C         16.46901954      3.36471885      6.65911234   
    21       C         19.05332568      1.21585374      0.53620573   
    22       C         17.96530374      2.30387568      5.04694427   
    23       C         18.76490015      3.51285098      7.04986584   
    24       C         18.88422323      2.53041758      1.00012083   
    25       C         19.27986758      2.13477323      4.58302917   
    26       C          2.04035100     13.66368766      5.69094946   
    27       C          2.28176641     14.36705290      4.51797431   
    28       C          4.61467447     14.05656276      4.89023642   
    29       C          6.73390421     14.35740521      6.89472127   
    30       C          5.86358046     14.53101885      4.50718766   
    31       C          4.36729626     13.47017568      6.11935573   
    32       C          3.05273242     13.30107323      6.58327083   
    33       C          6.85266898     14.62280583      5.46108001   
    34       C          3.56769985     14.67915098      4.11643416   
    35       C         14.70909900     11.05850054      3.08576234   
    36       C         14.46768359     12.23147569      2.38239710   
    37       C          8.78390290      7.86491641      1.06517569   
    38       C         12.12175563      8.44254911      1.95693874   
    39       C         14.79251126      8.30690089      4.62769437   
    40       C         13.82722929      8.79415356      3.71594365   
    41       C         13.03350635      7.95529644      2.92222071   
    42       C         11.04423001     13.29294417      1.26951898   
    43       C          9.89678102     11.28836999      2.12664417   
    44       C         12.13477553     11.85921358      2.69288724   
    45       C          8.47341276     10.19782447      0.69289125   
    46       C         10.01554579      9.85472873      2.39204479   
    47       C         12.47787127     13.55834479      1.15075421   
    48       C         10.09033766     13.38473115      0.28043046   
    49       C         10.88586954     12.24226234      2.21840882   
    50       C          8.94786885     11.44673046      1.07596234   
    51       C         12.38215374     10.63009427      3.27927432   
    52       C         13.18175015     12.63301584      2.07029902   
    53       C          9.09600098      9.15084985      1.46671584   
    54       C         13.69671758     10.16617917      3.44837677   
    55       C          9.03965583     12.43581898      0.12206999   
    56       C          5.47535054     20.29224900      2.49738766   
    57       C          0.10779946     19.24683766      3.54279900   
    58       C          6.64832569     20.05083359      3.20075290   
    59       C          2.85939911     17.70490563      3.62621126   
    60       C          2.72375089     20.37566126      0.95545563   
    61       C          3.21100356     19.41037929      1.86720635   
    62       C          2.37214644     18.61665635      2.66092929   
    63       C          5.70521999     15.47993102      3.45650583   
    64       C          6.27606358     17.71792553      2.89026276   
    65       C          4.27157873     15.59869579      3.19110521   
    66       C          6.65911234     16.46901954      3.36471885   
    67       C          5.04694427     17.96530374      2.30387568   
    68       C          0.53620573     19.05332568      1.21585374   
    69       C          7.04986584     18.76490015      3.51285098   
    70       C          4.58302917     19.27986758      2.13477323   
    71       C          1.00012083     18.88422323      2.53041758   
    72       C          7.70979417     16.62738001      4.31363102   
    73       C          7.54008874     19.47320089      6.53860563   
    74       C          8.27603724     16.05653642      6.55162553   
    75       C          7.97519479     18.06102127      4.43239579   
    76       C          7.80158115     15.67348766      5.30271954   
    77       C          8.86242432     17.28565573      6.79900374   
    78       C         21.26742431     19.95020290      3.30138359   
    79       C         21.63968642     19.63971276      0.96847553   
    80       C         19.94055521     21.18184579      1.31157127   
    81       C         20.86588416     20.26230098      2.01545015   
    82       C          5.69094946      2.04035100     13.66368766   
    83       C          4.51797431      2.28176641     14.36705290   
    84       C          4.89023642      4.61467447     14.05656276   
    85       C          6.89472127      6.73390421     14.35740521   
    86       C          4.50718766      5.86358046     14.53101885   
    87       C          6.11935573      4.36729626     13.47017568   
    88       C          6.58327083      3.05273242     13.30107323   
    89       C          5.46108001      6.85266898     14.62280583   
    90       C          4.11643416      3.56769985     14.67915098   
    91       C         11.05850054      3.08576234     14.70909900   
    92       C          7.86491641      1.06517569      8.78390290   
    93       C         12.23147569      2.38239710     14.46768359   
    94       C          8.30690089      4.62769437     14.79251126   
    95       C          8.44254911      1.95693874     12.12175563   
    96       C          7.95529644      2.92222071     13.03350635   
    97       C          8.79415356      3.71594365     13.82722929   
    98       C         13.29294417      1.26951898     11.04423001   
    99       C         11.28836999      2.12664417      9.89678102   
   100       C         10.19782447      0.69289125      8.47341276   
   101       C         11.85921358      2.69288724     12.13477553   
   102       C         13.55834479      1.15075421     12.47787127   
   103       C          9.85472873      2.39204479     10.01554579   
   104       C         12.24226234      2.21840882     10.88586954   
   105       C         11.44673046      1.07596234      8.94786885   
   106       C         13.38473115      0.28043046     10.09033766   
   107       C         10.63009427      3.27927432     12.38215374   
   108       C          9.15084985      1.46671584      9.09600098   
   109       C         12.63301584      2.07029902     13.18175015   
   110       C         10.16617917      3.44837677     13.69671758   
   111       C         12.43581898      0.12206999      9.03965583   
   112       C         16.62738001      4.31363102      7.70979417   
   113       C         19.47320089      6.53860563      7.54008874   
   114       C         16.05653642      6.55162553      8.27603724   
   115       C         18.06102127      4.43239579      7.97519479   
   116       C         15.67348766      5.30271954      7.80158115   
   117       C         17.28565573      6.79900374      8.86242432   
   118       C          3.08576234     14.70909900     11.05850054   
   119       C          2.38239710     14.46768359     12.23147569   
   120       C          1.06517569      8.78390290      7.86491641   
   121       C          1.95693874     12.12175563      8.44254911   
   122       C          4.62769437     14.79251126      8.30690089   
   123       C          3.71594365     13.82722929      8.79415356   
   124       C          2.92222071     13.03350635      7.95529644   
   125       C          2.12664417      9.89678102     11.28836999   
   126       C          1.26951898     11.04423001     13.29294417   
   127       C          2.69288724     12.13477553     11.85921358   
   128       C          0.69289125      8.47341276     10.19782447   
   129       C          1.15075421     12.47787127     13.55834479   
   130       C          2.39204479     10.01554579      9.85472873   
   131       C          1.07596234      8.94786885     11.44673046   
   132       C          0.28043046     10.09033766     13.38473115   
   133       C          2.21840882     10.88586954     12.24226234   
   134       C          3.27927432     12.38215374     10.63009427   
   135       C          2.07029902     13.18175015     12.63301584   
   136       C          1.46671584      9.09600098      9.15084985   
   137       C          3.44837677     13.69671758     10.16617917   
   138       C          0.12206999      9.03965583     12.43581898   
   139       C         19.96045356      7.45035635      8.50537071   
   140       C         15.28273416      7.59860015      7.65344902   
   141       C         16.85724946      9.12594900      8.66891234   
   142       C         18.78980100     11.27409946     14.25206234   
   143       C         22.22480054      8.08053766      7.62350100   
   144       C         15.68427431      8.88453359      7.96554710   
   145       C         19.03121641     10.10112431     13.54869710   
   146       C         21.37714437     13.89005089     13.12323874   
   147       C         19.60884911      9.20936126     10.21084437   
   148       C         19.12159644      8.24407929      9.29909365   
   149       C         20.46539365     14.37730356     14.08852071   
   150       C         21.36412447     10.47338642     13.85918724   
   151       C         21.02102873      8.77425521     12.31705421   
   152       C         21.11674626     11.70250573     14.44557432   
   153       C         21.79639427      7.88702568      9.95044626   
   154       C         20.31714985      9.69958416     13.23659902   
   155       C         17.74957083      8.11356758      9.03152677   
   156       C         19.80218242     12.16642083     14.61467677   
   157       C         21.33247917      7.71792323      8.63588242   
   158       C         19.67167071     13.53844644     14.88224365   
   159       C          8.50537071     19.96045356      7.45035635   
   160       C          7.65344902     15.28273416      7.59860015   
   161       C          7.62350100     22.22480054      8.08053766   
   162       C          8.66891234     16.85724946      9.12594900   
   163       C         14.25206234     18.78980100     11.27409946   
   164       C          7.96554710     15.68427431      8.88453359   
   165       C         13.54869710     19.03121641     10.10112431   
   166       C         10.21084437     19.60884911      9.20936126   
   167       C         13.12323874     21.37714437     13.89005089   
   168       C          9.29909365     19.12159644      8.24407929   
   169       C         14.08852071     20.46539365     14.37730356   
   170       C         13.85918724     21.36412447     10.47338642   
   171       C         12.31705421     21.02102873      8.77425521   
   172       C          9.95044626     21.79639427      7.88702568   
   173       C         14.44557432     21.11674626     11.70250573   
   174       C         13.23659902     20.31714985      9.69958416   
   175       C          8.63588242     21.33247917      7.71792323   
   176       C          9.03152677     17.74957083      8.11356758   
   177       C         14.61467677     19.80218242     12.16642083   
   178       C         14.88224365     19.67167071     13.53844644   
   179       C         19.83521234     16.64165054     13.20665100   
   180       C         19.13184710     17.81462569     13.44806641   
   181       C         15.79399437     18.70638874     14.02569911   
   182       C         18.81974902     18.21616584     14.73399985   
   183       C         20.19782677     15.74932917     14.21903242   
   184       C          3.54279900      0.10779946     19.24683766   
   185       C          2.49738766      5.47535054     20.29224900   
   186       C          3.20075290      6.64832569     20.05083359   
   187       C          0.95545563      2.72375089     20.37566126   
   188       C          3.62621126      2.85939911     17.70490563   
   189       C          2.66092929      2.37214644     18.61665635   
   190       C          1.86720635      3.21100356     19.41037929   
   191       C          3.45650583      5.70521999     15.47993102   
   192       C          2.89026276      6.27606358     17.71792553   
   193       C          3.19110521      4.27157873     15.59869579   
   194       C          3.36471885      6.65911234     16.46901954   
   195       C          1.21585374      0.53620573     19.05332568   
   196       C          2.30387568      5.04694427     17.96530374   
   197       C          3.51285098      7.04986584     18.76490015   
   198       C          2.53041758      1.00012083     18.88422323   
   199       C          2.13477323      4.58302917     19.27986758   
   200       C         19.95020290      3.30138359     21.26742431   
   201       C         19.63971276      0.96847553     21.63968642   
   202       C         21.18184579      1.31157127     19.94055521   
   203       C         20.26230098      2.01545015     20.86588416   
   204       C          4.31363102      7.70979417     16.62738001   
   205       C          6.53860563      7.54008874     19.47320089   
   206       C          6.55162553      8.27603724     16.05653642   
   207       C          4.43239579      7.97519479     18.06102127   
   208       C          5.30271954      7.80158115     15.67348766   
   209       C          6.79900374      8.86242432     17.28565573   
   210       C          7.45035635      8.50537071     19.96045356   
   211       C          7.59860015      7.65344902     15.28273416   
   212       C          8.08053766      7.62350100     22.22480054   
   213       C         11.27409946     14.25206234     18.78980100   
   214       C          9.12594900      8.66891234     16.85724946   
   215       C         10.10112431     13.54869710     19.03121641   
   216       C          8.88453359      7.96554710     15.68427431   
   217       C          9.20936126     10.21084437     19.60884911   
   218       C         13.89005089     13.12323874     21.37714437   
   219       C         14.37730356     14.08852071     20.46539365   
   220       C          8.24407929      9.29909365     19.12159644   
   221       C         10.47338642     13.85918724     21.36412447   
   222       C          8.77425521     12.31705421     21.02102873   
   223       C          7.88702568      9.95044626     21.79639427   
   224       C         11.70250573     14.44557432     21.11674626   
   225       C          9.69958416     13.23659902     20.31714985   
   226       C          7.71792323      8.63588242     21.33247917   
   227       C         12.16642083     14.61467677     19.80218242   
   228       C          8.11356758      9.03152677     17.74957083   
   229       C         13.53844644     14.88224365     19.67167071   
   230       C         16.64165054     13.20665100     19.83521234   
   231       C         17.81462569     13.44806641     19.13184710   
   232       C         18.70638874     14.02569911     15.79399437   
   233       C         18.21616584     14.73399985     18.81974902   
   234       C         15.74932917     14.21903242     20.19782677   
   235       C          3.30138359     21.26742431     19.95020290   
   236       C          0.96847553     21.63968642     19.63971276   
   237       C          1.31157127     19.94055521     21.18184579   
   238       C          2.01545015     20.86588416     20.26230098   
   239       C         13.20665100     19.83521234     16.64165054   
   240       C         13.44806641     19.13184710     17.81462569   
   241       C         14.02569911     15.79399437     18.70638874   
   242       C         14.73399985     18.81974902     18.21616584   
   243       C         14.21903242     20.19782677     15.74932917   
   244       C         20.20595583     21.06308102     22.21053001   
   245       C         21.06308102     22.21053001     20.20595583   
   246       C         22.21053001     20.20595583     21.06308102   
   247       C         18.01896898     18.87609417     16.87151999   
   248       C         16.87151999     18.01896898     18.87609417   
   249       C         18.87609417     16.87151999     18.01896898   
   250       C         17.44236358     15.78097447     19.44233724   
   251       C         19.44233724     17.44236358     15.78097447   
   252       C         15.78097447     19.44233724     17.44236358   
   253       C         15.43787873     17.90020421     19.14149479   
   254       C         19.14149479     15.43787873     17.90020421   
   255       C         17.90020421     19.14149479     15.43787873   
   256       C         21.25663766     20.11416885     22.05216954   
   257       C         18.96788115     17.82541234     17.02988046   
   258       C         22.05216954     21.25663766     20.11416885   
   259       C         17.02988046     18.96788115     17.82541234   
   260       C         20.11416885     22.05216954     21.25663766   
   261       C         17.82541234     17.02988046     18.96788115   
   262       C         16.21324427     15.53359626     20.02872432   
   263       C         20.02872432     16.21324427     15.53359626   
   264       C         15.53359626     20.02872432     16.21324427   
   265       B         14.15181130      7.08352107      5.26357049   
   266       B         19.73496130      0.31957951      1.50037107   
   267       B         17.06902951      2.98551130      4.08277893   
   268       B          5.26357049     14.15181130      7.08352107   
   269       B         11.48587951      9.66592893      2.59763870   
   270       B          4.08277893     17.06902951      2.98551130   
   271       B          1.50037107     19.73496130      0.31957951   
   272       B          8.18078870     18.24982107      5.90272951   
   273       B          7.08352107      5.26357049     14.15181130   
   274       B          9.66592893      2.59763870     11.48587951   
   275       B         18.24982107      5.90272951      8.18078870   
   276       B          2.59763870     11.48587951      9.66592893   
   277       B         22.01302049     12.66667107     13.76393870   
   278       B         20.83222893      8.56866130     10.84672049   
   279       B         10.84672049     20.83222893      8.56866130   
   280       B         13.76393870     22.01302049     12.66667107   
   281       B          0.31957951      1.50037107     19.73496130   
   282       B          2.98551130      4.08277893     17.06902951   
   283       B          5.90272951      8.18078870     18.24982107   
   284       B          8.56866130     10.84672049     20.83222893   
   285       B         12.66667107     13.76393870     22.01302049   
   286       B         15.24907893     16.42987049     19.34708870   
   287       B         19.34708870     15.24907893     16.42987049   
   288       B         16.42987049     19.34708870     15.24907893   
   289       H         13.46166696      5.96856601      1.00590497   
   290       H          9.13854459      7.01942650      1.65448834   
   291       H         14.72169459      3.92866166      1.43629884   
   292       H         21.32669503      2.29536696      5.19773399   
   293       H         19.04481696      4.57724503      0.38541601   
   294       H         20.89632350      3.55539459      7.23763834   
   295       H         21.40608742      0.76122900      3.18156919   
   296       H         17.51067900      4.65663742      2.40158081   
   297       H         19.93101919      6.34437900      6.50966258   
   298       H          1.00590497     13.46166696      5.96856601   
   299       H          1.43629884     14.72169459      3.92866166   
   300       H          1.65448834      9.13854459      7.01942650   
   301       H         11.92752900      7.98473081      0.92651258   
   302       H         15.82293742      8.76471919      4.82192100   
   303       H         21.94718399      7.87851696      6.58905497   
   304       H         15.74354503     10.78088399      3.28778304   
   305       H         15.31317350     12.82078834      2.02775541   
   306       H          5.19773399     21.32669503      2.29536696   
   307       H          0.38541601     19.04481696      4.57724503   
   308       H          7.23763834     20.89632350      3.55539459   
   309       H          2.40158081     17.51067900      4.65663742   
   310       H          3.18156919     21.40608742      0.76122900   
   311       H          6.50966258     19.93101919      6.34437900   
   312       H         20.67811166     20.30484459      4.14687350   
   313       H          5.96856601      1.00590497     13.46166696   
   314       H          3.92866166      1.43629884     14.72169459   
   315       H          7.01942650      1.65448834      9.13854459   
   316       H          7.98473081      0.92651258     11.92752900   
   317       H          0.92651258     11.92752900      7.98473081   
   318       H         17.13486601     10.16039503      8.87093304   
   319       H         17.75535497     11.55171601     14.45408304   
   320       H         15.09496166      9.73002350      7.61090541   
   321       H         18.18572650      9.51181166     13.19405541   
   322       H         19.15103081     10.23978742     10.40507100   
   323       H         21.57137100     14.34786919     12.09281258   
   324       H          4.82192100     15.82293742      8.76471919   
   325       H          3.28778304     15.74354503     10.78088399   
   326       H          6.58905497     21.94718399      7.87851696   
   327       H          2.02775541     15.31317350     12.82078834   
   328       H         14.45408304     17.75535497     11.55171601   
   329       H          8.87093304     17.13486601     10.16039503   
   330       H         13.19405541     18.18572650      9.51181166   
   331       H          7.61090541     15.09496166      9.73002350   
   332       H         10.40507100     19.15103081     10.23978742   
   333       H         12.09281258     21.57137100     14.34786919   
   334       H         20.03723304     16.36403399     12.17220497   
   335       H         18.77720541     18.40393834     12.60257650   
   336       H         15.98822100     17.67596258     13.56788081   
   337       H          2.29536696      5.19773399     21.32669503   
   338       H          4.57724503      0.38541601     19.04481696   
   339       H          3.55539459      7.23763834     20.89632350   
   340       H          0.76122900      3.18156919     21.40608742   
   341       H          4.65663742      2.40158081     17.51067900   
   342       H          6.34437900      6.50966258     19.93101919   
   343       H          8.76471919      4.82192100     15.82293742   
   344       H          7.87851696      6.58905497     21.94718399   
   345       H         10.78088399      3.28778304     15.74354503   
   346       H         12.82078834      2.02775541     15.31317350   
   347       H         20.30484459      4.14687350     20.67811166   
   348       H         10.16039503      8.87093304     17.13486601   
   349       H         11.55171601     14.45408304     17.75535497   
   350       H          9.73002350      7.61090541     15.09496166   
   351       H          9.51181166     13.19405541     18.18572650   
   352       H         10.23978742     10.40507100     19.15103081   
   353       H         14.34786919     12.09281258     21.57137100   
   354       H         16.36403399     12.17220497     20.03723304   
   355       H         18.40393834     12.60257650     18.77720541   
   356       H         17.67596258     13.56788081     15.98822100   
   357       H          4.14687350     20.67811166     20.30484459   
   358       H         12.17220497     20.03723304     16.36403399   
   359       H         12.60257650     18.77720541     18.40393834   
   360       H         13.56788081     15.98822100     17.67596258   
   361      Tv         22.33260000      0.00000000      0.00000000   
   362      Tv          0.00000000     22.33260000      0.00000000   
   363      Tv          0.00000000      0.00000000     22.33260000   

                             CARTESIAN COORDINATES

   1    C       13.663687660     5.690949460     2.040351001
   2    C       14.367052897     4.517974310     2.281766407
   3    C       14.056562759     4.890236420     4.614674468
   4    C       14.357405214     6.894721265     6.733904213
   5    C       14.531018846     4.507187665     5.863580458
   6    C       13.470175681     6.119355726     4.367296258
   7    C       13.301073234     6.583270826     3.052732424
   8    C       14.622805832     5.461080008     6.852668980
   9    C       14.679150982     4.116434162     3.567699848
  10    C       19.246837660     3.542798999     0.107799460
  11    C       20.292248999     2.497387660     5.475350540
  12    C       20.050833593     3.200752897     6.648325690
  13    C       20.375661260     0.955455626     2.723750894
  14    C       17.704905626     3.626211260     2.859399106
  15    C       18.616656353     2.660929290     2.372146439
  16    C       19.410379290     1.867206353     3.211003561
  17    C       15.479931020     3.456505832     5.705219992
  18    C       17.717925532     2.890262759     6.276063580
  19    C       15.598695787     3.191105214     4.271578735
  20    C       16.469019542     3.364718846     6.659112335
  21    C       19.053325681     1.215853742     0.536205726
  22    C       17.965303742     2.303875681     5.046944274
  23    C       18.764900152     3.512850982     7.049865838
  24    C       18.884223234     2.530417576     1.000120826
  25    C       19.279867576     2.134773234     4.583029174
  26    C        2.040351001    13.663687660     5.690949460
  27    C        2.281766407    14.367052897     4.517974310
  28    C        4.614674468    14.056562759     4.890236420
  29    C        6.733904213    14.357405214     6.894721265
  30    C        5.863580458    14.531018846     4.507187665
  31    C        4.367296258    13.470175681     6.119355726
  32    C        3.052732424    13.301073234     6.583270826
  33    C        6.852668980    14.622805832     5.461080008
  34    C        3.567699848    14.679150982     4.116434162
  35    C       14.709098999    11.058500540     3.085762340
  36    C       14.467683593    12.231475690     2.382397103
  37    C        8.783902897     7.864916407     1.065175690
  38    C       12.121755626     8.442549106     1.956938740
  39    C       14.792511260     8.306900894     4.627694374
  40    C       13.827229290     8.794153561     3.715943647
  41    C       13.033506353     7.955296439     2.922220710
  42    C       11.044230008    13.292944168     1.269518980
  43    C        9.896781020    11.288369992     2.126644168
  44    C       12.134775532    11.859213580     2.692887241
  45    C        8.473412759    10.197824468     0.692891248
  46    C       10.015545787     9.854728735     2.392044786
  47    C       12.477871265    13.558344786     1.150754213
  48    C       10.090337665    13.384731154     0.280430458
  49    C       10.885869542    12.242262335     2.218408821
  50    C        8.947868846    11.446730458     1.075962335
  51    C       12.382153742    10.630094274     3.279274319
  52    C       13.181750152    12.633015838     2.070299018
  53    C        9.096000982     9.150849848     1.466715838
  54    C       13.696717576    10.166179174     3.448376766
  55    C        9.039655832    12.435818980     0.122069992
  56    C        5.475350540    20.292248999     2.497387660
  57    C        0.107799460    19.246837660     3.542798999
  58    C        6.648325690    20.050833593     3.200752897
  59    C        2.859399106    17.704905626     3.626211260
  60    C        2.723750894    20.375661260     0.955455626
  61    C        3.211003561    19.410379290     1.867206353
  62    C        2.372146439    18.616656353     2.660929290
  63    C        5.705219992    15.479931020     3.456505832
  64    C        6.276063580    17.717925532     2.890262759
  65    C        4.271578735    15.598695787     3.191105214
  66    C        6.659112335    16.469019542     3.364718846
  67    C        5.046944274    17.965303742     2.303875681
  68    C        0.536205726    19.053325681     1.215853742
  69    C        7.049865838    18.764900152     3.512850982
  70    C        4.583029174    19.279867576     2.134773234
  71    C        1.000120826    18.884223234     2.530417576
  72    C        7.709794168    16.627380008     4.313631020
  73    C        7.540088740    19.473200894     6.538605626
[...]
  293          H           0.146591        0.8534     0.85341
  294          H           0.164463        0.8355     0.83554
  295          H           0.155911        0.8441     0.84409
  296          H           0.163461        0.8365     0.83654
  297          H           0.167299        0.8327     0.83270
  298          H           0.153891        0.8461     0.84611
  299          H           0.166500        0.8335     0.83350
  300          H           0.163908        0.8361     0.83609
  301          H           0.170293        0.8297     0.82971
  302          H           0.153601        0.8464     0.84640
  303          H           0.155925        0.8441     0.84408
  304          H           0.151093        0.8489     0.84891
  305          H           0.164206        0.8358     0.83579
  306          H           0.153864        0.8461     0.84614
  307          H           0.146561        0.8534     0.85344
  308          H           0.164444        0.8356     0.83556
  309          H           0.163669        0.8363     0.83633
  310          H           0.155737        0.8443     0.84426
  311          H           0.167252        0.8327     0.83275
  312          H           0.165375        0.8346     0.83462
  313          H           0.153701        0.8463     0.84630
  314          H           0.166531        0.8335     0.83347
  315          H           0.163969        0.8360     0.83603
  316          H           0.170261        0.8297     0.82974
  317          H           0.170287        0.8297     0.82971
  318          H           0.146277        0.8537     0.85372
  319          H           0.142105        0.8579     0.85790
  320          H           0.166789        0.8332     0.83321
  321          H           0.169569        0.8304     0.83043
  322          H           0.155714        0.8443     0.84429
  323          H           0.154482        0.8455     0.84552
  324          H           0.153660        0.8463     0.84634
  325          H           0.151047        0.8490     0.84895
  326          H           0.155910        0.8441     0.84409
  327          H           0.164234        0.8358     0.83577
  328          H           0.142132        0.8579     0.85787
  329          H           0.146236        0.8538     0.85376
  330          H           0.169533        0.8305     0.83047
  331          H           0.166839        0.8332     0.83316
  332          H           0.155723        0.8443     0.84428
  333          H           0.154568        0.8454     0.84543
  334          H           0.152020        0.8480     0.84798
  335          H           0.166210        0.8338     0.83379
  336          H           0.163089        0.8369     0.83691
  337          H           0.153849        0.8462     0.84615
  338          H           0.146449        0.8536     0.85355
  339          H           0.164434        0.8356     0.83557
  340          H           0.155938        0.8441     0.84406
  341          H           0.163365        0.8366     0.83663
  342          H           0.167370        0.8326     0.83263
  343          H           0.153596        0.8464     0.84640
  344          H           0.155958        0.8440     0.84404
  345          H           0.151050        0.8489     0.84895
  346          H           0.164215        0.8358     0.83579
  347          H           0.165351        0.8346     0.83465
  348          H           0.146329        0.8537     0.85367
  349          H           0.142047        0.8580     0.85795
  350          H           0.166776        0.8332     0.83322
  351          H           0.169573        0.8304     0.83043
  352          H           0.155723        0.8443     0.84428
  353          H           0.154599        0.8454     0.84540
  354          H           0.152049        0.8480     0.84795
  355          H           0.166234        0.8338     0.83377
  356          H           0.163198        0.8368     0.83680
  357          H           0.165348        0.8347     0.83465
  358          H           0.151971        0.8480     0.84803
  359          H           0.166239        0.8338     0.83376
  360          H           0.163036        0.8370     0.83696


          ATOMIC ORBITAL ELECTRON POPULATIONS

     Atom    s        px        py        pz   
    1  C   1.08195   0.99583   0.99153   1.07645
    2  C   1.07958   0.97976   0.99822   1.04252
    3  C   1.06610   0.98245   0.99701   0.97192
    4  C   1.11983   0.92077   0.92319   1.02474
    5  C   1.05717   0.95556   0.98263   0.98136
    6  C   1.09122   0.87546   1.00784   1.01910
    7  C   1.05840   0.99236   0.97543   1.01313
    8  C   1.07278   1.00837   0.98367   0.96422
    9  C   1.07900   1.01133   0.99446   0.99217
   10  C   1.08324   0.97725   1.06956   0.98860
   11  C   1.07987   1.08050   1.02444   1.00450
   12  C   1.08202   1.03818   0.95222   0.98322
   13  C   1.18549   0.94173   0.84077   0.94215
   14  C   1.17743   0.90753   0.96735   0.93798
   15  C   1.06912   0.91052   0.98899   0.97612
   16  C   1.05729   1.04451   1.00921   0.97775
   17  C   1.07003   1.00332   1.03762   0.98937
   18  C   1.06591   0.97131   0.98112   0.99669
   19  C   1.16704   0.98403   0.63908   0.93479
   20  C   1.06217   0.96386   0.91723   0.95895
   21  C   1.09244   0.86540   1.01502   1.00099
   22  C   1.09277   1.02809   0.90163   0.99891
   23  C   1.07319   0.99644   1.04345   1.01115
   24  C   1.05069   1.02883   1.01628   0.97136
   25  C   1.05898   1.00279   0.92999   0.96522
   26  C   1.08188   1.07662   0.99673   0.99182
   27  C   1.07970   1.04240   0.97868   0.99772
   28  C   1.06617   0.97180   0.98166   0.99666
   29  C   1.11962   1.02485   0.92233   0.92321
   30  C   1.05702   0.98153   0.95638   0.98282
   31  C   1.09117   1.01925   0.87632   1.00792
   32  C   1.05857   1.01300   0.99078   0.97534
   33  C   1.07286   0.96392   1.00774   0.98357
   34  C   1.07886   0.99237   1.01240   0.99509
   35  C   1.08152   1.07763   0.99925   1.00340
   36  C   1.07866   1.04290   0.99820   0.98727
   37  C   1.08385   0.94059   1.03897   0.98040
   38  C   1.13958   1.02653   1.02463   1.01921
   39  C   1.18191   0.93860   0.98706   0.79029
   40  C   1.04495   1.08070   0.98388   1.07796
   41  C   1.07486   0.84463   0.96339   0.95661
   42  C   1.06676   0.99817   1.06727   1.00115
   43  C   1.06454   1.03243   0.99146   1.07502
   44  C   1.06413   0.98301   1.00609   1.01724
   45  C   1.06855   0.94802   0.96758   0.97918
   46  C   1.17742   0.94502   0.95067   0.61909
   47  C   1.15283   0.92679   0.70367   1.00263
   48  C   1.06781   0.96444   0.89646   0.96470
   49  C   1.07510   0.94927   0.95108   0.86226
   50  C   1.04686   1.00927   0.98818   0.99583
   51  C   1.08857   1.03179   0.98686   0.93545
   52  C   1.07887   0.98282   0.99362   0.99638
   53  C   1.07326   1.05281   0.99835   1.01349
   54  C   1.05401   0.99231   0.96564   0.94385
   55  C   1.07739   0.97029   0.95141   0.97463
   56  C   1.07985   1.00463   1.08057   1.02473
   57  C   1.08329   0.98834   0.97665   1.06946
   58  C   1.08203   0.98311   1.03814   0.95208
   59  C   1.17684   0.93875   0.91045   0.96844
   60  C   1.18584   0.94212   0.94098   0.83834
   61  C   1.05691   0.97796   1.04603   1.01201
   62  C   1.06949   0.97588   0.90753   0.98739
   63  C   1.06994   0.98954   1.00395   1.03836
   64  C   1.06591   0.99677   0.97140   0.98134
   65  C   1.16742   0.93498   0.98334   0.63727
   66  C   1.06239   0.95858   0.96358   0.91617
   67  C   1.09276   0.99870   1.02830   0.90224
   68  C   1.09246   1.00115   0.86453   1.01483
   69  C   1.07315   1.01135   0.99639   1.04354
   70  C   1.05898   0.96512   1.00249   0.92906
   71  C   1.05065   0.97156   1.03020   1.01653
   72  C   1.06365   1.09666   1.00082   1.03745
   73  C   1.14519   1.00752   1.01389   1.00724
   74  C   1.05928   1.06042   1.02244   0.98744
   75  C   1.17846   0.59889   0.94667   0.95405
   76  C   1.07449   0.86315   0.95175   0.94963
   77  C   1.08859   0.90717   0.98573   1.02134
   78  C   1.07546   1.01132   1.01125   1.04628
   79  C   1.06365   1.00633   1.00503   0.97698
   80  C   1.15650   0.68880   0.99929   0.93331
   81  C   1.08298   0.97290   0.98313   0.98535
   82  C   1.08199   0.99137   1.07636   0.99534
   83  C   1.07951   0.99849   1.04259   0.98036
   84  C   1.06607   0.99722   0.97199   0.98293
   85  C   1.11987   0.92317   1.02472   0.92037
   86  C   1.05727   0.98250   0.98126   0.95503
   87  C   1.09124   1.00779   1.01903   0.87504
   88  C   1.05832   0.97549   1.01318   0.99320
   89  C   1.07273   0.98373   0.96436   1.00873
   90  C   1.07908   0.99411   0.99205   1.01071
   91  C   1.08154   0.99916   1.00311   1.07756
   92  C   1.08381   1.03900   0.98053   0.94090
   93  C   1.07862   0.99838   0.98764   1.04295
   94  C   1.18195   0.98695   0.79026   0.93858
   95  C   1.13965   1.02436   1.01914   1.02644
   96  C   1.07488   0.96340   0.95652   0.84451
   97  C   1.04497   0.98390   1.07781   1.08061
   98  C   1.06680   1.06686   1.00086   0.99804
   99  C   1.06453   0.99155   1.07521   1.03250
  100  C   1.06850   0.96760   0.97948   0.94852
  101  C   1.06409   1.00621   1.01751   0.98302
  102  C   1.15262   0.70489   1.00285   0.92672
  103  C   1.17747   0.95065   0.61865   0.94514
  104  C   1.07507   0.95112   0.86233   0.94928
  105  C   1.04700   0.98792   0.99543   1.00822
  106  C   1.06773   0.89679   0.96481   0.96456
  107  C   1.08857   0.98686   0.93519   1.03171
  108  C   1.07330   0.99834   1.01331   1.05248
  109  C   1.07892   0.99330   0.99599   0.98275
  110  C   1.05396   0.96566   0.94437   0.99237
  111  C   1.07730   0.95194   0.97475   0.97108
  112  C   1.06366   1.00067   1.03750   1.09646
  113  C   1.14502   1.01434   1.00771   1.00776
  114  C   1.05933   1.02223   0.98744   1.06003
  115  C   1.17850   0.94685   0.95380   0.59902
  116  C   1.07449   0.95181   0.94958   0.86320
  117  C   1.08855   0.98570   1.02145   0.90781
  118  C   1.08156   1.00289   1.07754   0.99909
  119  C   1.07861   0.98788   1.04301   0.99850
  120  C   1.08384   0.98043   0.94067   1.03897
  121  C   1.13946   1.01926   1.02660   1.02510
  122  C   1.18179   0.79050   0.93880   0.98745
  123  C   1.04494   1.07771   1.08052   0.98387
  124  C   1.07479   0.95691   0.84512   0.96337
  125  C   1.06451   1.07525   1.03256   0.99145
  126  C   1.06681   1.00061   0.99797   1.06664
  127  C   1.06408   1.01779   0.98314   1.00624
  128  C   1.06852   0.97926   0.94819   0.96757
  129  C   1.15236   1.00311   0.92666   0.70634
  130  C   1.17743   0.61924   0.94487   0.95079
  131  C   1.04687   0.99568   1.00903   0.98808
  132  C   1.06771   0.96490   0.96467   0.89701
  133  C   1.07515   0.86206   0.94920   0.95111
  134  C   1.08852   0.93550   1.03169   0.98680
  135  C   1.07898   0.99556   0.98262   0.99304
  136  C   1.07325   1.01343   1.05276   0.99836
  137  C   1.05393   0.94457   0.99234   0.96568
  138  C   1.07737   0.97462   0.97047   0.95159
  139  C   1.07346   0.96475   0.86964   0.96869
  140  C   1.08648   0.94206   0.96899   0.93941
  141  C   1.08482   0.98794   1.07042   0.96498
  142  C   1.08760   1.06235   0.97349   0.92987
  143  C   1.07856   1.00429   1.03303   1.08116
  144  C   1.07468   1.02066   1.05136   1.03072
  145  C   1.07075   1.05491   1.03610   1.06116
  146  C   1.18631   0.83053   0.94591   0.93913
  147  C   1.18563   0.97402   0.93904   0.78812
  148  C   1.04656   0.98458   1.06734   1.05804
  149  C   1.05577   1.01738   0.97834   1.04634
  150  C   1.05954   0.98337   1.02718   1.05560
  151  C   1.12120   0.92882   0.91903   1.02784
  152  C   1.09452   1.00745   0.99848   0.82211
  153  C   1.08882   1.01224   0.91551   1.02229
  154  C   1.09085   0.97021   0.92100   0.91861
  155  C   1.04807   0.96915   0.99867   1.00431
  156  C   1.04436   1.02029   0.97876   1.09706
  157  C   1.06340   0.96962   0.93784   1.01093
  158  C   1.07046   0.97920   0.97538   0.89425
  159  C   1.07344   0.96878   0.96477   0.86988
  160  C   1.08655   0.93891   0.94158   0.96890
  161  C   1.07859   1.08112   1.00419   1.03272
  162  C   1.08487   0.96455   0.98780   1.07034
  163  C   1.08757   0.93026   1.06241   0.97364
  164  C   1.07464   1.03112   1.02087   1.05142
  165  C   1.07079   1.06082   1.05483   1.03592
  166  C   1.18575   0.78808   0.97352   0.93894
  167  C   1.18621   0.93942   0.83147   0.94577
  168  C   1.04662   1.05771   0.98458   1.06715
  169  C   1.05593   1.04563   1.01608   0.97825
  170  C   1.05954   1.05544   0.98332   1.02714
  171  C   1.12142   1.02774   0.92878   0.91748
  172  C   1.08886   1.02229   1.01219   0.91510
  173  C   1.09451   0.82256   1.00755   0.99841
  174  C   1.09078   0.91904   0.97031   0.92139
  175  C   1.06335   1.01095   0.96964   0.93822
  176  C   1.04801   1.00499   0.96921   0.99877
  177  C   1.04440   1.09627   1.02016   0.97866
  178  C   1.07029   0.89566   0.97994   0.97547
  179  C   1.08190   1.00151   0.99713   1.07718
  180  C   1.07911   0.98007   0.99601   1.04107
  181  C   1.17874   0.90721   0.96760   0.93416
  182  C   1.07751   1.01226   0.99607   0.99103
  183  C   1.05551   0.96264   0.96804   1.00324
  184  C   1.08331   1.06940   0.98837   0.97641
  185  C   1.07986   1.02455   1.00450   1.08051
  186  C   1.08204   0.95206   0.98317   1.03817
  187  C   1.18528   0.84192   0.94236   0.94206
  188  C   1.17782   0.96680   0.93733   0.90597
  189  C   1.06897   0.98951   0.97628   0.91158
  190  C   1.05744   1.00815   0.97762   1.04391
  191  C   1.07008   1.03716   0.98928   1.00293
  192  C   1.06591   0.98092   0.99663   0.97123
  193  C   1.16680   0.64022   0.93467   0.98444
  194  C   1.06204   0.91789   0.95913   0.96404
  195  C   1.09246   1.01490   1.00082   0.86490
  196  C   1.09279   0.90139   0.99904   1.02802
  197  C   1.07316   1.04365   1.01117   0.99650
  198  C   1.05052   1.01628   0.97141   1.03001
  199  C   1.05904   0.93001   0.96526   1.00289
  200  C   1.07551   1.01068   1.04619   1.01102
  201  C   1.06367   1.00487   0.97698   1.00625
  202  C   1.15673   0.99902   0.93335   0.68739
  203  C   1.08288   0.98371   0.98543   0.97337
  204  C   1.06365   1.03762   1.09646   1.00058
  205  C   1.14478   1.00833   1.00811   1.01497
  206  C   1.05935   0.98747   1.05991   1.02212
  207  C   1.17856   0.95349   0.59915   0.94701
  208  C   1.07452   0.94952   0.86313   0.95181
  209  C   1.08850   1.02155   0.90845   0.98566
  210  C   1.07346   0.86935   0.96857   0.96472
  211  C   1.08644   0.96900   0.93964   0.94231
  212  C   1.07855   1.03312   1.08118   1.00432
  213  C   1.08761   0.97354   0.92981   1.06232
  214  C   1.08480   1.07048   0.96524   0.98802
  215  C   1.07074   1.03619   1.06137   1.05496
  216  C   1.07471   1.05132   1.03045   1.02053
  217  C   1.18543   0.93920   0.78821   0.97474
  218  C   1.18605   0.94587   0.93966   0.83241
  219  C   1.05604   0.97813   1.04523   1.01538
  220  C   1.04649   1.06754   1.05838   0.98455
  221  C   1.05949   1.02738   1.05612   0.98345
  222  C   1.12089   0.92112   1.02799   0.92880
  223  C   1.08879   0.91573   1.02233   1.01227
  224  C   1.09452   0.99832   0.82235   1.00747
  225  C   1.09089   0.92061   0.91823   0.97007
  226  C   1.06343   0.93768   1.01089   0.96963
  227  C   1.04430   0.97867   1.09682   1.02016
  228  C   1.04811   0.99854   1.00376   0.96913
  229  C   1.07017   0.97561   0.89651   0.98039
  230  C   1.08191   0.99706   1.07718   1.00145
  231  C   1.07913   0.99598   1.04106   0.97994
  232  C   1.17851   0.96809   0.93438   0.90848
  233  C   1.07751   0.99607   0.99113   1.01243
  234  C   1.05556   0.96813   1.00344   0.96302
  235  C   1.07539   1.04635   1.01157   1.01189
  236  C   1.06357   0.97715   1.00668   1.00597
  237  C   1.15598   0.93308   0.69167   0.99990
  238  C   1.08305   0.98509   0.97239   0.98235
  239  C   1.08195   1.07708   1.00093   0.99692
  240  C   1.07905   1.04114   0.98067   0.99630
  241  C   1.17907   0.93359   0.90590   0.96714
  242  C   1.07760   0.99095   1.01165   0.99565
  243  C   1.05545   1.00340   0.96370   0.96815
  244  C   1.06873   1.03940   0.99680   0.98772
  245  C   1.06864   0.99727   0.98796   1.04027
  246  C   1.06877   0.98765   1.03904   0.99628
  247  C   1.06733   1.01474   1.06838   0.99893
  248  C   1.06740   0.99878   1.01438   1.06777
  249  C   1.06733   1.06835   0.99890   1.01492
  250  C   1.06352   1.00985   0.97376   1.00465
  251  C   1.06351   1.00494   1.00991   0.97386
  252  C   1.06347   0.97387   1.00526   1.01007
  253  C   1.16713   0.93111   0.98585   0.63257
  254  C   1.16750   0.63079   0.93133   0.98525
  255  C   1.16733   0.98551   0.63156   0.93119
  256  C   1.06162   0.97342   0.92550   0.96616
  257  C   1.06741   0.88648   0.95294   0.95970
  258  C   1.06190   0.96574   0.97293   0.92405
  259  C   1.06740   0.95977   0.88652   0.95302
  260  C   1.06172   0.92494   0.96593   0.97316
  261  C   1.06726   0.95315   0.95993   0.88717
  262  C   1.09340   0.99660   1.02524   0.88207
  263  C   1.09336   0.88263   0.99642   1.02536
  264  C   1.09339   1.02521   0.88200   0.99646
  265  B   0.59452   0.87945   0.90103   0.92896
  266  B   0.57107   0.98854   0.89935   0.93546
  267  B   0.58023   0.89375   0.97211   0.89769
  268  B   0.59486   0.92919   0.87817   0.90031
  269  B   0.64287   0.89445   0.74184   0.79603
  270  B   0.58093   0.89545   0.89358   0.97047
  271  B   0.57080   0.93660   0.98882   0.89967
  272  B   0.63246   0.82856   0.76854   0.88808
  273  B   0.59446   0.90117   0.92891   0.87975
  274  B   0.64268   0.74225   0.79674   0.89436
  275  B   0.63286   0.76754   0.88813   0.82734
  276  B   0.64323   0.79492   0.89447   0.74110
  277  B   0.57054   0.89832   0.94241   0.99132
  278  B   0.59551   0.89537   0.87366   0.92971
  279  B   0.59521   0.92949   0.89601   0.87482
  280  B   0.57059   0.99145   0.89817   0.94209
  281  B   0.57123   0.89915   0.93491   0.98839
  282  B   0.57983   0.97308   0.89885   0.89385
  283  B   0.63341   0.88818   0.82574   0.76625
  284  B   0.59593   0.87213   0.92999   0.89455
  285  B   0.57068   0.94172   0.99142   0.89799
  286  B   0.57904   0.90011   0.89152   0.97972
  287  B   0.57966   0.97830   0.89815   0.89136
  288  B   0.57936   0.89141   0.97900   0.89917
  289  H   0.84623
  290  H   0.83607
  291  H   0.83349
  292  H   0.84616
  293  H   0.85341
  294  H   0.83554
  295  H   0.84409
  296  H   0.83654
  297  H   0.83270
  298  H   0.84611
  299  H   0.83350
  300  H   0.83609
  301  H   0.82971
  302  H   0.84640
  303  H   0.84408
  304  H   0.84891
  305  H   0.83579
  306  H   0.84614
  307  H   0.85344
  308  H   0.83556
  309  H   0.83633
  310  H   0.84426
  311  H   0.83275
  312  H   0.83462
  313  H   0.84630
  314  H   0.83347
  315  H   0.83603
  316  H   0.82974
  317  H   0.82971
  318  H   0.85372
  319  H   0.85790
  320  H   0.83321
  321  H   0.83043
  322  H   0.84429
  323  H   0.84552
  324  H   0.84634
  325  H   0.84895
  326  H   0.84409
  327  H   0.83577
  328  H   0.85787
  329  H   0.85376
  330  H   0.83047
  331  H   0.83316
  332  H   0.84428
  333  H   0.84543
  334  H   0.84798
  335  H   0.83379
  336  H   0.83691
  337  H   0.84615
  338  H   0.85355
  339  H   0.83557
  340  H   0.84406
  341  H   0.83663
  342  H   0.83263
  343  H   0.84640
  344  H   0.84404
  345  H   0.84895
  346  H   0.83579
  347  H   0.83465
  348  H   0.85367
  349  H   0.85795
  350  H   0.83322
  351  H   0.83043
  352  H   0.84428
  353  H   0.84540
  354  H   0.84795
  355  H   0.83377
  356  H   0.83680
  357  H   0.83465
  358  H   0.84803
  359  H   0.83376
  360  H   0.83696

 **********************
 *                    *
 * JOB ENDED NORMALLY *
 *                    *
 **********************



 TOTAL JOB TIME:           442.58 SECONDS

 == MOPAC DONE ==
