 *******************************************************************************
 **                                                                           **
 **                              MOPAC v22.1.0                                **
 **                                                                           **
 *******************************************************************************
 **          Digital Object Identifier (DOI): 10.5281/zenodo.6511958          **
 **    Visit the DOI location for information on how to cite this program.    **
 *******************************************************************************

                              PM7 CALCULATION RESULTS

 *******************************************************************************
 *  CALCULATION DONE:                                Thu Feb  1 11:19:26 2024  *
 *  PM7        - The PM7 Hamiltonian to be used
 *  NOOPT      - DO NOT OPTIMIZE ANY COORDINATES
 *
 *
 *
 *                 CHARGE ON SYSTEM = 0
 *
 *
 *
 *  T=         - A TIME OF 172800.0 SECONDS REQUESTED
 *  DUMP=N     - RESTART FILE WRITTEN EVERY 7200.0 SECONDS REQUESTED
 *******************************************************************************
PM7 CHARGE=0 NOOPT


   ATOM   CHEMICAL          X               Y               Z
  NUMBER   SYMBOL      (ANGSTROMS)     (ANGSTROMS)     (ANGSTROMS)

     1       C         14.57299528      6.23721675      2.18529523   
     2       C         15.23502404      5.04063149      2.41251211   
     3       C         15.01539896      5.47934438      4.74947993   
     4       C         15.43220073      7.33216527      6.82099152   
     5       C         15.42937425      4.99398277      5.99430235   
     6       C         14.64461520      6.80954541      4.57615318   
     7       C         14.83170064      7.74579016      5.60286889   
     8       C         14.41235269      7.17019119      3.24158394   
     9       C         20.41284528      3.65455477      0.39736675   
    10       C         21.17410477      2.89329528      5.44248325   
    11       C         20.94688789      3.55532404      6.63906851   
    12       C         20.48995466      0.57849554      3.25676755   
    13       C         18.09804554      2.97040466      2.58308245   
    14       C         16.33803155      3.92666842      5.77757384   
    15       C         17.58182616      4.65833155      7.75303158   
    16       C         15.60636842      5.90212616      7.02136845   
    17       C         18.60992007      3.33569896      6.20035562   
    18       C         16.53840848      3.75250073      4.34753473   
    19       C         17.36509765      3.74967425      6.68571723   
    20       C         20.48446520      1.26369682      0.96969541   
    21       C         18.78324682      2.96491520      4.87015459   
    22       C         20.67155064      0.23698111      1.90594016   
    23       C         17.75653111      3.15200064      3.93390984   
    24       C         15.59317036      4.66949734      3.69702216   
    25       C         19.66237784      3.91347036      7.01020266   
    26       C         20.25220269      2.59826606      1.33034119   
    27       C         20.11781606      2.73265269      4.50950881   
    28       C          2.18529523     14.57299528      6.23721675   
    29       C          2.41251211     15.23502404      5.04063149   
    30       C          4.74947993     15.01539896      5.47934438   
    31       C          6.82099152     15.43220073      7.33216527   
    32       C          5.99430235     15.42937425      4.99398277   
    33       C          4.57615318     14.64461520      6.80954541   
    34       C          5.60286889     14.83170064      7.74579016   
    35       C          3.24158394     14.41235269      7.17019119   
    36       C         15.33425477     11.28233325      2.94655472   
    37       C         15.10703789     12.47891851      2.28452596   
    38       C          9.39517404      8.25236211      0.79921851   
    39       C         12.25819554      8.42293245      2.86944534   
    40       C         14.65010466      9.09661755      5.26135446   
    41       C         11.74197616     13.59288158      1.18151845   
    42       C         10.49818155     11.61742384      1.91318158   
    43       C         12.77007007     12.04020562      2.50415104   
    44       C          9.17554896     10.58932993      0.36050562   
    45       C         10.69855848     10.18738473      2.08732591   
    46       C         13.17201527     13.76704927      0.98114152   
    47       C         10.83383277     13.76987575      0.15445235   
    48       C         11.52524765     12.52556723      2.09017575   
    49       C          9.58952425     11.83415235      0.84586723   
    50       C         12.94339682     10.71000459      2.87493480   
    51       C         11.91668111      9.77375984      2.68784936   
    52       C         13.82252784     12.85005266      1.92637964   
    53       C          9.75332036      9.53687216      1.17035266   
    54       C         14.27796606     10.34935881      3.10719731   
    55       C         16.34919734      7.98267784      7.76622964   
    56       C          5.44248325     21.17410477      2.89329528   
    57       C          0.39736675     20.41284528      3.65455477   
    58       C          6.63906851     20.94688789      3.55532404   
    59       C          2.58308245     18.09804554      2.97040466   
    60       C          3.25676755     20.48995466      0.57849554   
    61       C          7.02136845     15.60636842      5.90212616   
    62       C          5.77757384     16.33803155      3.92666842   
    63       C          7.75303158     17.58182616      4.65833155   
    64       C          6.20035562     18.60992007      3.33569896   
    65       C          4.34753473     16.53840848      3.75250073   
    66       C          6.68571723     17.36509765      3.74967425   
    67       C          4.87015459     18.78324682      2.96491520   
    68       C          0.96969541     20.48446520      1.26369682   
    69       C          3.93390984     17.75653111      3.15200064   
    70       C          1.90594016     20.67155064      0.23698111   
    71       C          7.01020266     19.66237784      3.91347036   
    72       C          3.69702216     15.59317036      4.66949734   
    73       C          4.50950881     20.11781606      2.73265269   
    74       C          1.33034119     20.25220269      2.59826606   
    75       C          8.70929534     20.77631755      6.41834554   
    76       C          8.34400104     17.15904438      6.93022007   
    77       C          7.92719927     19.01186527      4.85870848   
    78       C          7.93002575     16.67368277      5.68539765   
    79       C          8.71478480     18.48924541      7.10354682   
    80       C          8.52769936     19.42549016      6.07683111   
    81       C         22.56018149     21.07487404      3.42733789   
    82       C         21.44621842     22.17788155      0.06227616   
    83       C         22.99889438     20.85524896      1.09037007   
    84       C         21.27205073     22.37825848      1.49231527   
    85       C         22.18904734     21.43302036      2.14282784   
    86       C          6.23721675      2.18529523     14.57299528   
    87       C          5.04063149      2.41251211     15.23502404   
    88       C          5.47934438      4.74947993     15.01539896   
    89       C          7.33216527      6.82099152     15.43220073   
    90       C          4.99398277      5.99430235     15.42937425   
    91       C          6.80954541      4.57615318     14.64461520   
    92       C          7.74579016      5.60286889     14.83170064   
    93       C          7.17019119      3.24158394     14.41235269   
    94       C         11.28233325      2.94655472     15.33425477   
    95       C          8.25236211      0.79921851      9.39517404   
    96       C         12.47891851      2.28452596     15.10703789   
    97       C          9.09661755      5.26135446     14.65010466   
    98       C          8.42293245      2.86944534     12.25819554   
    99       C         13.59288158      1.18151845     11.74197616   
   100       C         11.61742384      1.91318158     10.49818155   
   101       C         10.58932993      0.36050562      9.17554896   
   102       C         12.04020562      2.50415104     12.77007007   
   103       C         13.76704927      0.98114152     13.17201527   
   104       C         10.18738473      2.08732591     10.69855848   
   105       C         12.52556723      2.09017575     11.52524765   
   106       C         11.83415235      0.84586723      9.58952425   
   107       C         13.76987575      0.15445235     10.83383277   
   108       C         10.71000459      2.87493480     12.94339682   
   109       C          9.77375984      2.68784936     11.91668111   
   110       C          9.53687216      1.17035266      9.75332036   
   111       C         12.85005266      1.92637964     13.82252784   
   112       C         10.34935881      3.10719731     14.27796606   
   113       C         20.77631755      6.41834554      8.70929534   
   114       C         17.15904438      6.93022007      8.34400104   
   115       C         19.01186527      4.85870848      7.92719927   
   116       C         16.67368277      5.68539765      7.93002575   
   117       C         18.48924541      7.10354682      8.71478480   
   118       C         19.42549016      6.07683111      8.52769936   
   119       C          2.94655472     15.33425477     11.28233325   
   120       C          2.28452596     15.10703789     12.47891851   
   121       C          0.79921851      9.39517404      8.25236211   
   122       C          2.86944534     12.25819554      8.42293245   
   123       C          5.26135446     14.65010466      9.09661755   
   124       C          1.91318158     10.49818155     11.61742384   
   125       C          1.18151845     11.74197616     13.59288158   
   126       C          2.50415104     12.77007007     12.04020562   
   127       C          0.36050562      9.17554896     10.58932993   
   128       C          0.98114152     13.17201527     13.76704927   
   129       C          2.08732591     10.69855848     10.18738473   
   130       C          0.84586723      9.58952425     11.83415235   
   131       C          0.15445235     10.83383277     13.76987575   
   132       C          2.09017575     11.52524765     12.52556723   
   133       C          2.87493480     12.94339682     10.71000459   
   134       C          2.68784936     11.91668111      9.77375984   
   135       C          1.92637964     13.82252784     12.85005266   
   136       C          1.17035266      9.75332036      9.53687216   
   137       C          3.10719731     14.27796606     10.34935881   
   138       C         17.91691675      9.49440477      8.78640472   
   139       C         19.70484523     12.07706675     14.62625472   
   140       C         22.96203325      8.73314528      8.02514523   
   141       C         16.72033149      9.26718789      8.12437596   
   142       C         19.93206211     10.88048149     13.96422596   
   143       C         22.78090446     14.93646755     14.54914534   
   144       C         20.10263245      8.81025466     11.10120446   
   145       C         23.29712384      9.76651842     12.86121845   
   146       C         22.26902993     11.31919438     14.18385104   
   147       C         21.86708473      9.59235073     12.66084152   
   148       C         22.09570318     12.64939541     14.55463480   
   149       C         22.38970459      8.80476520     10.41600318   
   150       C         23.12241889     13.58564016     14.36754936   
   151       C         21.45345984      8.99185064     11.44271889   
   152       C         21.21657216     10.50934734     13.60607964   
   153       C         18.84989119      8.43811606      8.94704731   
   154       C         20.76113394     13.01004119     14.78689731   
   155       C         22.02905881      8.57250269      9.08143394   
   156       C          7.76622964     16.34919734      7.98267784   
   157       C          8.02514523     22.96203325      8.73314528   
   158       C          8.78640472     17.91691675      9.49440477   
   159       C         14.62625472     19.70484523     12.07706675   
   160       C          8.12437596     16.72033149      9.26718789   
   161       C         13.96422596     19.93206211     10.88048149   
   162       C         11.10120446     20.10263245      8.81025466   
   163       C         14.54914534     22.78090446     14.93646755   
   164       C         12.86121845     23.29712384      9.76651842   
   165       C         14.18385104     22.26902993     11.31919438   
   166       C         12.66084152     21.86708473      9.59235073   
   167       C         10.41600318     22.38970459      8.80476520   
   168       C         14.55463480     22.09570318     12.64939541   
   169       C         11.44271889     21.45345984      8.99185064   
   170       C         14.36754936     23.12241889     13.58564016   
   171       C         13.60607964     21.21657216     10.50934734   
   172       C          9.08143394     22.02905881      8.57250269   
   173       C          8.94704731     18.84989119      8.43811606   
   174       C         14.78689731     20.76113394     13.01004119   
   175       C         20.46610472     17.12218325     13.86499523   
   176       C         19.80407596     18.31876851     14.09221211   
   177       C         16.94105446     20.38899534     14.26278245   
   178       C         19.44592964     18.68990266     15.37672216   
   179       C         20.62674731     16.18920881     14.92128394   
   180       C          3.65455477      0.39736675     20.41284528   
   181       C          2.89329528      5.44248325     21.17410477   
   182       C          3.55532404      6.63906851     20.94688789   
   183       C          0.57849554      3.25676755     20.48995466   
   184       C          2.97040466      2.58308245     18.09804554   
   185       C          4.65833155      7.75303158     17.58182616   
   186       C          5.90212616      7.02136845     15.60636842   
   187       C          3.92666842      5.77757384     16.33803155   
   188       C          3.33569896      6.20035562     18.60992007   
   189       C          3.75250073      4.34753473     16.53840848   
   190       C          3.74967425      6.68571723     17.36509765   
   191       C          1.26369682      0.96969541     20.48446520   
   192       C          2.96491520      4.87015459     18.78324682   
   193       C          0.23698111      1.90594016     20.67155064   
   194       C          3.15200064      3.93390984     17.75653111   
   195       C          4.66949734      3.69702216     15.59317036   
   196       C          3.91347036      7.01020266     19.66237784   
   197       C          2.59826606      1.33034119     20.25220269   
   198       C          2.73265269      4.50950881     20.11781606   
   199       C          7.98267784      7.76622964     16.34919734   
   200       C         21.07487404      3.42733789     22.56018149   
   201       C         22.17788155      0.06227616     21.44621842   
   202       C         20.85524896      1.09037007     22.99889438   
   203       C         22.37825848      1.49231527     21.27205073   
   204       C         21.43302036      2.14282784     22.18904734   
   205       C          6.41834554      8.70929534     20.77631755   
   206       C          6.93022007      8.34400104     17.15904438   
   207       C          4.85870848      7.92719927     19.01186527   
   208       C          5.68539765      7.93002575     16.67368277   
   209       C          7.10354682      8.71478480     18.48924541   
   210       C          6.07683111      8.52769936     19.42549016   
   211       C          8.73314528      8.02514523     22.96203325   
   212       C         12.07706675     14.62625472     19.70484523   
   213       C          9.49440477      8.78640472     17.91691675   
   214       C         10.88048149     13.96422596     19.93206211   
   215       C          9.26718789      8.12437596     16.72033149   
   216       C          8.81025466     11.10120446     20.10263245   
   217       C         14.93646755     14.54914534     22.78090446   
   218       C          9.76651842     12.86121845     23.29712384   
   219       C         11.31919438     14.18385104     22.26902993   
   220       C          9.59235073     12.66084152     21.86708473   
   221       C          8.80476520     10.41600318     22.38970459   
   222       C         12.64939541     14.55463480     22.09570318   
   223       C          8.99185064     11.44271889     21.45345984   
   224       C         13.58564016     14.36754936     23.12241889   
   225       C         10.50934734     13.60607964     21.21657216   
   226       C          8.57250269      9.08143394     22.02905881   
   227       C         13.01004119     14.78689731     20.76113394   
   228       C          8.43811606      8.94704731     18.84989119   
   229       C         17.12218325     13.86499523     20.46610472   
   230       C         18.31876851     14.09221211     19.80407596   
   231       C         20.38899534     14.26278245     16.94105446   
   232       C         18.68990266     15.37672216     19.44592964   
   233       C         16.18920881     14.92128394     20.62674731   
   234       C          3.42733789     22.56018149     21.07487404   
   235       C          0.06227616     21.44621842     22.17788155   
   236       C          1.09037007     22.99889438     20.85524896   
   237       C          1.49231527     21.27205073     22.37825848   
   238       C          2.14282784     22.18904734     21.43302036   
   239       C         13.86499523     20.46610472     17.12218325   
   240       C         14.09221211     19.80407596     18.31876851   
   241       C         14.26278245     16.94105446     20.38899534   
   242       C         15.37672216     19.44592964     18.68990266   
   243       C         14.92128394     20.62674731     16.18920881   
   244       C         18.70106845     19.43273158     17.45727384   
   245       C         17.45727384     18.70106845     19.43273158   
   246       C         19.43273158     17.45727384     18.70106845   
   247       C         17.88005562     16.42917993     20.02370104   
   248       C         20.02370104     17.88005562     16.42917993   
   249       C         16.42917993     20.02370104     17.88005562   
   250       C         16.02723473     18.50069152     19.60689927   
   251       C         19.60689927     16.02723473     18.50069152   
   252       C         18.50069152     19.60689927     16.02723473   
   253       C         22.51353277     21.26922425     23.20494765   
   254       C         19.60972575     18.36541723     17.67400235   
   255       C         23.20494765     22.51353277     21.26922425   
   256       C         17.67400235     19.60972575     18.36541723   
   257       C         21.26922425     23.20494765     22.51353277   
   258       C         18.36541723     17.67400235     19.60972575   
   259       C         16.54985459     16.25585318     20.39448480   
   260       C         20.39448480     16.54985459     16.25585318   
   261       C         16.25585318     20.39448480     16.54985459   
   262       C         15.61360984     17.28256889     20.20739936   
   263       C         20.20739936     15.61360984     17.28256889   
   264       C         17.28256889     20.20739936     15.61360984   
   265       B         19.50565963      2.37488012      2.58604910   
   266       B         19.89443012      1.98610963      3.25380090   
   267       B         14.05458012      9.09365090      3.85374037   
   268       B         13.66580963      8.42589910      3.46496988   
   269       B          3.25380090     19.89443012      1.98610963   
   270       B          2.58604910     19.50565963      2.37488012   
   271       B          8.42589910      3.46496988     13.66580963   
   272       B          9.09365090      3.85374037     14.05458012   
   273       B          3.85374037     14.05458012      9.09365090   
   274       B          3.46496988     13.66580963      8.42589910   
   275       B         20.77335090      7.82595963      9.30481988   
   276       B         20.10559910      8.21473012      9.69359037   
   277       B         21.37329037     14.93350090     15.14466988   
   278       B         20.98451988     14.26574910     15.53344037   
   279       B          9.30481988     20.77335090      7.82595963   
   280       B          9.69359037     20.10559910      8.21473012   
   281       B         15.14466988     21.37329037     14.93350090   
   282       B         15.53344037     20.98451988     14.26574910   
   283       B          2.37488012      2.58604910     19.50565963   
   284       B          1.98610963      3.25380090     19.89443012   
   285       B          7.82595963      9.30481988     20.77335090   
   286       B         14.93350090     15.14466988     21.37329037   
   287       B          8.21473012      9.69359037     20.10559910   
   288       B         14.26574910     15.53344037     20.98451988   
   289       H         14.13164278      6.44305979      1.21146520   
   290       H          9.60809497      7.41163395      1.45391242   
   291       H         15.44794497      4.38593758      1.57178395   
   292       H         11.70154104      7.54123190      2.40022507   
   293       H         22.14793480      2.45194278      5.23664021   
   294       H         19.97149278      4.62838480      0.60320979   
   295       H         21.78761605      3.76824497      7.29376242   
   296       H         20.95917493      0.02184104      4.13846810   
   297       H         17.54139104      3.43962493      1.70138190   
   298       H          1.21146520     14.13164278      6.44305979   
   299       H          1.57178395     15.44794497      4.38593758   
   300       H          1.45391242      9.60809497      7.41163395   
   301       H          2.40022507     11.70154104      7.54123190   
   302       H         15.11932493      9.97831810      5.81800896   
   303       H         22.75619021      8.29179278      7.05131520   
   304       H         16.30808480     11.07649021      3.38790722   
   305       H         15.94776605     13.13361242      2.07160503   
   306       H          5.23664021     22.14793480      2.45194278   
   307       H          0.60320979     19.97149278      4.62838480   
   308       H          7.29376242     21.78761605      3.76824497   
   309       H          1.70138190     17.54139104      3.43962493   
   310       H          4.13846810     20.95917493      0.02184104   
   311       H          8.24007507     21.65801810      5.86169104   
   312       H         21.90548758     21.28779497      4.26806605   
   313       H          6.44305979      1.21146520     14.13164278   
   314       H          4.38593758      1.57178395     15.44794497   
   315       H          7.41163395      1.45391242      9.60809497   
   316       H          7.54123190      2.40022507     11.70154104   
   317       H          9.97831810      5.81800896     15.11932493   
   318       H         21.65801810      5.86169104      8.24007507   
   319       H          5.81800896     15.11932493      9.97831810   
   320       H         18.12275979     10.46823480      9.22775722   
   321       H         18.73101520     12.28290979     15.06760722   
   322       H         16.06563758     10.10791605      7.91145503   
   323       H         19.09133395     10.22578758     13.75130503   
   324       H         19.22093190      9.27947493     11.65785896   
   325       H          3.38790722     16.30808480     11.07649021   
   326       H          7.05131520     22.75619021      8.29179278   
   327       H          2.07160503     15.94776605     13.13361242   
   328       H         15.06760722     18.73101520     12.28290979   
   329       H          9.22775722     18.12275979     10.46823480   
   330       H         13.75130503     19.09133395     10.22578758   
   331       H          7.91145503     16.06563758     10.10791605   
   332       H         11.65785896     19.22093190      9.27947493   
   333       H         20.90745722     16.91634021     12.89116520   
   334       H         19.59115503     18.97346242     13.25148395   
   335       H         23.33755896     15.81816810     14.07992507   
   336       H         17.49770896     19.91977507     13.38108190   
   337       H          2.45194278      5.23664021     22.14793480   
   338       H          4.62838480      0.60320979     19.97149278   
   339       H          3.76824497      7.29376242     21.78761605   
   340       H          0.02184104      4.13846810     20.95917493   
   341       H          3.43962493      1.70138190     17.54139104   
   342       H          8.29179278      7.05131520     22.75619021   
   343       H         11.07649021      3.38790722     16.30808480   
   344       H         13.13361242      2.07160503     15.94776605   
   345       H         21.28779497      4.26806605     21.90548758   
   346       H          5.86169104      8.24007507     21.65801810   
   347       H         10.46823480      9.22775722     18.12275979   
   348       H         12.28290979     15.06760722     18.73101520   
   349       H         10.10791605      7.91145503     16.06563758   
   350       H         10.22578758     13.75130503     19.09133395   
   351       H          9.27947493     11.65785896     19.22093190   
   352       H         16.91634021     12.89116520     20.90745722   
   353       H         18.97346242     13.25148395     19.59115503   
   354       H         19.91977507     13.38108190     17.49770896   
   355       H         15.81816810     14.07992507     23.33755896   
   356       H          4.26806605     21.90548758     21.28779497   
   357       H         12.89116520     20.90745722     16.91634021   
   358       H         13.25148395     19.59115503     18.97346242   
   359       H         13.38108190     17.49770896     19.91977507   
   360       H         14.07992507     23.33755896     15.81816810   
   361      Tv         23.35940000      0.00000000      0.00000000   
   362      Tv          0.00000000     23.35940000      0.00000000   
   363      Tv          0.00000000      0.00000000     23.35940000   


                   THE SYSTEM IS A SOLID


                UNIT CELL TRANSLATION VECTORS

              X                Y              Z
    T1 =    23.3594000      0.0000000      0.0000000
    T2 =     0.0000000     23.3594000      0.0000000
    T3 =     0.0000000      0.0000000     23.3594000


          CARTESIAN COORDINATES 

    NO.       ATOM           X           Y           Z

     1         C         14.5730      6.2372      2.1853
     2         C         15.2350      5.0406      2.4125
     3         C         15.0154      5.4793      4.7495
     4         C         15.4322      7.3322      6.8210
     5         C         15.4294      4.9940      5.9943
     6         C         14.6446      6.8095      4.5762
     7         C         14.8317      7.7458      5.6029
     8         C         14.4124      7.1702      3.2416
     9         C         20.4128      3.6546      0.3974
    10         C         21.1741      2.8933      5.4425
    11         C         20.9469      3.5553      6.6391
    12         C         20.4900      0.5785      3.2568
    13         C         18.0980      2.9704      2.5831
    14         C         16.3380      3.9267      5.7776
    15         C         17.5818      4.6583      7.7530
    16         C         15.6064      5.9021      7.0214
    17         C         18.6099      3.3357      6.2004
    18         C         16.5384      3.7525      4.3475
    19         C         17.3651      3.7497      6.6857
    20         C         20.4845      1.2637      0.9697
    21         C         18.7832      2.9649      4.8702
    22         C         20.6716      0.2370      1.9059
    23         C         17.7565      3.1520      3.9339
    24         C         15.5932      4.6695      3.6970
    25         C         19.6624      3.9135      7.0102
    26         C         20.2522      2.5983      1.3303
    27         C         20.1178      2.7327      4.5095
    28         C          2.1853     14.5730      6.2372
    29         C          2.4125     15.2350      5.0406
    30         C          4.7495     15.0154      5.4793
    31         C          6.8210     15.4322      7.3322
    32         C          5.9943     15.4294      4.9940
    33         C          4.5762     14.6446      6.8095
    34         C          5.6029     14.8317      7.7458
    35         C          3.2416     14.4124      7.1702
    36         C         15.3343     11.2823      2.9466
    37         C         15.1070     12.4789      2.2845
    38         C          9.3952      8.2524      0.7992
    39         C         12.2582      8.4229      2.8694
    40         C         14.6501      9.0966      5.2614
    41         C         11.7420     13.5929      1.1815
    42         C         10.4982     11.6174      1.9132
    43         C         12.7701     12.0402      2.5042
    44         C          9.1755     10.5893      0.3605
    45         C         10.6986     10.1874      2.0873
    46         C         13.1720     13.7670      0.9811
    47         C         10.8338     13.7699      0.1545
    48         C         11.5252     12.5256      2.0902
    49         C          9.5895     11.8342      0.8459
    50         C         12.9434     10.7100      2.8749
    51         C         11.9167      9.7738      2.6878
    52         C         13.8225     12.8501      1.9264
    53         C          9.7533      9.5369      1.1704
    54         C         14.2780     10.3494      3.1072
    55         C         16.3492      7.9827      7.7662
    56         C          5.4425     21.1741      2.8933
    57         C          0.3974     20.4128      3.6546
    58         C          6.6391     20.9469      3.5553
    59         C          2.5831     18.0980      2.9704
    60         C          3.2568     20.4900      0.5785
    61         C          7.0214     15.6064      5.9021
    62         C          5.7776     16.3380      3.9267
    63         C          7.7530     17.5818      4.6583
    64         C          6.2004     18.6099      3.3357
    65         C          4.3475     16.5384      3.7525
    66         C          6.6857     17.3651      3.7497
    67         C          4.8702     18.7832      2.9649
    68         C          0.9697     20.4845      1.2637
    69         C          3.9339     17.7565      3.1520
    70         C          1.9059     20.6716      0.2370
    71         C          7.0102     19.6624      3.9135
    72         C          3.6970     15.5932      4.6695
    73         C          4.5095     20.1178      2.7327
    74         C          1.3303     20.2522      2.5983
    75         C          8.7093     20.7763      6.4183
    76         C          8.3440     17.1590      6.9302
    77         C          7.9272     19.0119      4.8587
    78         C          7.9300     16.6737      5.6854
    79         C          8.7148     18.4892      7.1035
    80         C          8.5277     19.4255      6.0768
    81         C         22.5602     21.0749      3.4273
    82         C         21.4462     22.1779      0.0623
    83         C         22.9989     20.8552      1.0904
    84         C         21.2721     22.3783      1.4923
    85         C         22.1890     21.4330      2.1428
    86         C          6.2372      2.1853     14.5730
    87         C          5.0406      2.4125     15.2350
    88         C          5.4793      4.7495     15.0154
    89         C          7.3322      6.8210     15.4322
    90         C          4.9940      5.9943     15.4294
    91         C          6.8095      4.5762     14.6446
    92         C          7.7458      5.6029     14.8317
    93         C          7.1702      3.2416     14.4124
    94         C         11.2823      2.9466     15.3343
    95         C          8.2524      0.7992      9.3952
    96         C         12.4789      2.2845     15.1070
    97         C          9.0966      5.2614     14.6501
    98         C          8.4229      2.8694     12.2582
    99         C         13.5929      1.1815     11.7420
   100         C         11.6174      1.9132     10.4982
   101         C         10.5893      0.3605      9.1755
   102         C         12.0402      2.5042     12.7701
   103         C         13.7670      0.9811     13.1720
   104         C         10.1874      2.0873     10.6986
   105         C         12.5256      2.0902     11.5252
   106         C         11.8342      0.8459      9.5895
   107         C         13.7699      0.1545     10.8338
   108         C         10.7100      2.8749     12.9434
   109         C          9.7738      2.6878     11.9167
   110         C          9.5369      1.1704      9.7533
   111         C         12.8501      1.9264     13.8225
   112         C         10.3494      3.1072     14.2780
   113         C         20.7763      6.4183      8.7093
   114         C         17.1590      6.9302      8.3440
   115         C         19.0119      4.8587      7.9272
   116         C         16.6737      5.6854      7.9300
   117         C         18.4892      7.1035      8.7148
   118         C         19.4255      6.0768      8.5277
   119         C          2.9466     15.3343     11.2823
   120         C          2.2845     15.1070     12.4789
   121         C          0.7992      9.3952      8.2524
   122         C          2.8694     12.2582      8.4229
   123         C          5.2614     14.6501      9.0966
   124         C          1.9132     10.4982     11.6174
   125         C          1.1815     11.7420     13.5929
   126         C          2.5042     12.7701     12.0402
   127         C          0.3605      9.1755     10.5893
   128         C          0.9811     13.1720     13.7670
   129         C          2.0873     10.6986     10.1874
   130         C          0.8459      9.5895     11.8342
   131         C          0.1545     10.8338     13.7699
   132         C          2.0902     11.5252     12.5256
   133         C          2.8749     12.9434     10.7100
   134         C          2.6878     11.9167      9.7738
   135         C          1.9264     13.8225     12.8501
   136         C          1.1704      9.7533      9.5369
   137         C          3.1072     14.2780     10.3494
   138         C         17.9169      9.4944      8.7864
   139         C         19.7048     12.0771     14.6263
   140         C         22.9620      8.7331      8.0251
   141         C         16.7203      9.2672      8.1244
   142         C         19.9321     10.8805     13.9642
   143         C         22.7809     14.9365     14.5491
   144         C         20.1026      8.8103     11.1012
   145         C         23.2971      9.7665     12.8612
   146         C         22.2690     11.3192     14.1839
   147         C         21.8671      9.5924     12.6608
   148         C         22.0957     12.6494     14.5546
   149         C         22.3897      8.8048     10.4160
   150         C         23.1224     13.5856     14.3675
   151         C         21.4535      8.9919     11.4427
   152         C         21.2166     10.5093     13.6061
   153         C         18.8499      8.4381      8.9470
   154         C         20.7611     13.0100     14.7869
   155         C         22.0291      8.5725      9.0814
   156         C          7.7662     16.3492      7.9827
   157         C          8.0251     22.9620      8.7331
   158         C          8.7864     17.9169      9.4944
   159         C         14.6263     19.7048     12.0771
   160         C          8.1244     16.7203      9.2672
   161         C         13.9642     19.9321     10.8805
   162         C         11.1012     20.1026      8.8103
   163         C         14.5491     22.7809     14.9365
   164         C         12.8612     23.2971      9.7665
   165         C         14.1839     22.2690     11.3192
   166         C         12.6608     21.8671      9.5924
   167         C         10.4160     22.3897      8.8048
   168         C         14.5546     22.0957     12.6494
   169         C         11.4427     21.4535      8.9919
   170         C         14.3675     23.1224     13.5856
   171         C         13.6061     21.2166     10.5093
   172         C          9.0814     22.0291      8.5725
   173         C          8.9470     18.8499      8.4381
   174         C         14.7869     20.7611     13.0100
   175         C         20.4661     17.1222     13.8650
   176         C         19.8041     18.3188     14.0922
   177         C         16.9411     20.3890     14.2628
   178         C         19.4459     18.6899     15.3767
   179         C         20.6267     16.1892     14.9213
   180         C          3.6546      0.3974     20.4128
   181         C          2.8933      5.4425     21.1741
   182         C          3.5553      6.6391     20.9469
   183         C          0.5785      3.2568     20.4900
   184         C          2.9704      2.5831     18.0980
   185         C          4.6583      7.7530     17.5818
   186         C          5.9021      7.0214     15.6064
   187         C          3.9267      5.7776     16.3380
   188         C          3.3357      6.2004     18.6099
   189         C          3.7525      4.3475     16.5384
   190         C          3.7497      6.6857     17.3651
   191         C          1.2637      0.9697     20.4845
   192         C          2.9649      4.8702     18.7832
   193         C          0.2370      1.9059     20.6716
   194         C          3.1520      3.9339     17.7565
   195         C          4.6695      3.6970     15.5932
   196         C          3.9135      7.0102     19.6624
   197         C          2.5983      1.3303     20.2522
   198         C          2.7327      4.5095     20.1178
   199         C          7.9827      7.7662     16.3492
   200         C         21.0749      3.4273     22.5602
   201         C         22.1779      0.0623     21.4462
   202         C         20.8552      1.0904     22.9989
   203         C         22.3783      1.4923     21.2721
   204         C         21.4330      2.1428     22.1890
   205         C          6.4183      8.7093     20.7763
   206         C          6.9302      8.3440     17.1590
   207         C          4.8587      7.9272     19.0119
   208         C          5.6854      7.9300     16.6737
   209         C          7.1035      8.7148     18.4892
   210         C          6.0768      8.5277     19.4255
   211         C          8.7331      8.0251     22.9620
   212         C         12.0771     14.6263     19.7048
   213         C          9.4944      8.7864     17.9169
   214         C         10.8805     13.9642     19.9321
   215         C          9.2672      8.1244     16.7203
   216         C          8.8103     11.1012     20.1026
   217         C         14.9365     14.5491     22.7809
   218         C          9.7665     12.8612     23.2971
   219         C         11.3192     14.1839     22.2690
   220         C          9.5924     12.6608     21.8671
   221         C          8.8048     10.4160     22.3897
   222         C         12.6494     14.5546     22.0957
   223         C          8.9919     11.4427     21.4535
   224         C         13.5856     14.3675     23.1224
   225         C         10.5093     13.6061     21.2166
   226         C          8.5725      9.0814     22.0291
   227         C         13.0100     14.7869     20.7611
   228         C          8.4381      8.9470     18.8499
   229         C         17.1222     13.8650     20.4661
   230         C         18.3188     14.0922     19.8041
   231         C         20.3890     14.2628     16.9411
   232         C         18.6899     15.3767     19.4459
   233         C         16.1892     14.9213     20.6267
   234         C          3.4273     22.5602     21.0749
   235         C          0.0623     21.4462     22.1779
   236         C          1.0904     22.9989     20.8552
   237         C          1.4923     21.2721     22.3783
   238         C          2.1428     22.1890     21.4330
   239         C         13.8650     20.4661     17.1222
   240         C         14.0922     19.8041     18.3188
   241         C         14.2628     16.9411     20.3890
   242         C         15.3767     19.4459     18.6899
   243         C         14.9213     20.6267     16.1892
   244         C         18.7011     19.4327     17.4573
   245         C         17.4573     18.7011     19.4327
   246         C         19.4327     17.4573     18.7011
   247         C         17.8801     16.4292     20.0237
   248         C         20.0237     17.8801     16.4292
   249         C         16.4292     20.0237     17.8801
   250         C         16.0272     18.5007     19.6069
   251         C         19.6069     16.0272     18.5007
   252         C         18.5007     19.6069     16.0272
   253         C         22.5135     21.2692     23.2049
   254         C         19.6097     18.3654     17.6740
   255         C         23.2049     22.5135     21.2692
   256         C         17.6740     19.6097     18.3654
   257         C         21.2692     23.2049     22.5135
   258         C         18.3654     17.6740     19.6097
   259         C         16.5499     16.2559     20.3945
   260         C         20.3945     16.5499     16.2559
   261         C         16.2559     20.3945     16.5499
   262         C         15.6136     17.2826     20.2074
   263         C         20.2074     15.6136     17.2826
   264         C         17.2826     20.2074     15.6136
   265         B         19.5057      2.3749      2.5860
   266         B         19.8944      1.9861      3.2538
   267         B         14.0546      9.0937      3.8537
   268         B         13.6658      8.4259      3.4650
   269         B          3.2538     19.8944      1.9861
   270         B          2.5860     19.5057      2.3749
   271         B          8.4259      3.4650     13.6658
   272         B          9.0937      3.8537     14.0546
   273         B          3.8537     14.0546      9.0937
   274         B          3.4650     13.6658      8.4259
   275         B         20.7734      7.8260      9.3048
   276         B         20.1056      8.2147      9.6936
   277         B         21.3733     14.9335     15.1447
   278         B         20.9845     14.2657     15.5334
   279         B          9.3048     20.7734      7.8260
   280         B          9.6936     20.1056      8.2147
   281         B         15.1447     21.3733     14.9335
   282         B         15.5334     20.9845     14.2657
   283         B          2.3749      2.5860     19.5057
   284         B          1.9861      3.2538     19.8944
   285         B          7.8260      9.3048     20.7734
   286         B         14.9335     15.1447     21.3733
   287         B          8.2147      9.6936     20.1056
   288         B         14.2657     15.5334     20.9845
   289         H         14.1316      6.4431      1.2115
   290         H          9.6081      7.4116      1.4539
   291         H         15.4479      4.3859      1.5718
   292         H         11.7015      7.5412      2.4002
   293         H         22.1479      2.4519      5.2366
   294         H         19.9715      4.6284      0.6032
   295         H         21.7876      3.7682      7.2938
   296         H         20.9592      0.0218      4.1385
   297         H         17.5414      3.4396      1.7014
   298         H          1.2115     14.1316      6.4431
   299         H          1.5718     15.4479      4.3859
   300         H          1.4539      9.6081      7.4116
   301         H          2.4002     11.7015      7.5412
   302         H         15.1193      9.9783      5.8180
   303         H         22.7562      8.2918      7.0513
   304         H         16.3081     11.0765      3.3879
   305         H         15.9478     13.1336      2.0716
   306         H          5.2366     22.1479      2.4519
   307         H          0.6032     19.9715      4.6284
   308         H          7.2938     21.7876      3.7682
   309         H          1.7014     17.5414      3.4396
   310         H          4.1385     20.9592      0.0218
   311         H          8.2401     21.6580      5.8617
   312         H         21.9055     21.2878      4.2681
   313         H          6.4431      1.2115     14.1316
   314         H          4.3859      1.5718     15.4479
   315         H          7.4116      1.4539      9.6081
   316         H          7.5412      2.4002     11.7015
   317         H          9.9783      5.8180     15.1193
   318         H         21.6580      5.8617      8.2401
   319         H          5.8180     15.1193      9.9783
   320         H         18.1228     10.4682      9.2278
   321         H         18.7310     12.2829     15.0676
   322         H         16.0656     10.1079      7.9115
   323         H         19.0913     10.2258     13.7513
   324         H         19.2209      9.2795     11.6579
   325         H          3.3879     16.3081     11.0765
   326         H          7.0513     22.7562      8.2918
   327         H          2.0716     15.9478     13.1336
   328         H         15.0676     18.7310     12.2829
   329         H          9.2278     18.1228     10.4682
   330         H         13.7513     19.0913     10.2258
   331         H          7.9115     16.0656     10.1079
   332         H         11.6579     19.2209      9.2795
   333         H         20.9075     16.9163     12.8912
   334         H         19.5912     18.9735     13.2515
   335         H         23.3376     15.8182     14.0799
   336         H         17.4977     19.9198     13.3811
   337         H          2.4519      5.2366     22.1479
   338         H          4.6284      0.6032     19.9715
   339         H          3.7682      7.2938     21.7876
   340         H          0.0218      4.1385     20.9592
   341         H          3.4396      1.7014     17.5414
   342         H          8.2918      7.0513     22.7562
   343         H         11.0765      3.3879     16.3081
   344         H         13.1336      2.0716     15.9478
   345         H         21.2878      4.2681     21.9055
   346         H          5.8617      8.2401     21.6580
   347         H         10.4682      9.2278     18.1228
   348         H         12.2829     15.0676     18.7310
   349         H         10.1079      7.9115     16.0656
   350         H         10.2258     13.7513     19.0913
   351         H          9.2795     11.6579     19.2209
   352         H         16.9163     12.8912     20.9075
   353         H         18.9735     13.2515     19.5912
   354         H         19.9198     13.3811     17.4977
   355         H         15.8182     14.0799     23.3376
   356         H          4.2681     21.9055     21.2878
   357         H         12.8912     20.9075     16.9163
   358         H         13.2515     19.5912     18.9735
   359         H         13.3811     17.4977     19.9198
   360         H         14.0799     23.3376     15.8182

 General Reference for PM7:
 "Optimization of Parameters for Semiempirical Methods VI: More Modifications to the 
 NDDO Approximations and Re-optimization of Parameters", J. J. P. Stewart, J. Mol. Mod., 1:32, 19 (2013)
 https://link.springer.com/article/10.1007/s00894-012-1667-x

           Empirical Formula: C264 H72 B24  =   360 atoms



      RHF CALCULATION, NO. OF DOUBLY OCCUPIED LEVELS = 600


 -------------------------------------------------------------------------------
 PM7 CHARGE=0 NOOPT




     NO PARAMETERS MARKED FOR OPTIMIZATION, SO 1SCF WAS USED  
     SCF FIELD WAS ACHIEVED                                   


                              PM7 CALCULATION
                                                       MOPAC v22.1.0 Linux
                                                       Thu Feb  1 11:22:32 2024




          FINAL HEAT OF FORMATION =       5931.12200 KCAL/MOL =   24815.81445 KJ/MOL
          H.o.F. per unit cell    =        247.13008 KCAL, for 24 unit cells, unit cell = C11 H3 B1



          IONIZATION POTENTIAL    =          7.114978 EV
          HOMO LUMO ENERGIES (EV) =         -7.115 -3.973
          NO. OF FILLED LEVELS    =        600
          MOLECULAR WEIGHT        =       3502.9128

                   THE SYSTEM IS A SOLID


                UNIT CELL TRANSLATION VECTORS

              X                Y              Z
    T1 =    23.3594000      0.0000000      0.0000000
    T2 =     0.0000000     23.3594000      0.0000000
    T3 =     0.0000000      0.0000000     23.3594000

          VOLUME OF UNIT CELL     =      12746.327 CUBIC ANGSTROMS

          DENSITY                 =          0.456 GRAMS/CC
                              A   =         23.359 ANGSTROMS
                              B   =         23.359 ANGSTROMS
                              C   =         23.359 ANGSTROMS
                            ALPHA =         90.000 DEGREES
                            BETA  =         90.000 DEGREES
                            GAMMA =         90.000 DEGREES



          SCF CALCULATIONS        =          1

          WALL-CLOCK TIME         =          3 MINUTES AND 5.691 SECONDS
          COMPUTATION TIME        =          3 MINUTES AND 5.676 SECONDS




   ATOM   CHEMICAL          X               Y               Z
  NUMBER   SYMBOL      (ANGSTROMS)     (ANGSTROMS)     (ANGSTROMS)

     1       C         14.57299528      6.23721675      2.18529523   
     2       C         15.23502404      5.04063149      2.41251211   
     3       C         15.01539896      5.47934438      4.74947993   
     4       C         15.43220073      7.33216527      6.82099152   
     5       C         15.42937425      4.99398277      5.99430235   
     6       C         14.64461520      6.80954541      4.57615318   
     7       C         14.83170064      7.74579016      5.60286889   
     8       C         14.41235269      7.17019119      3.24158394   
     9       C         20.41284528      3.65455477      0.39736675   
    10       C         21.17410477      2.89329528      5.44248325   
    11       C         20.94688789      3.55532404      6.63906851   
    12       C         20.48995466      0.57849554      3.25676755   
    13       C         18.09804554      2.97040466      2.58308245   
    14       C         16.33803155      3.92666842      5.77757384   
    15       C         17.58182616      4.65833155      7.75303158   
    16       C         15.60636842      5.90212616      7.02136845   
    17       C         18.60992007      3.33569896      6.20035562   
    18       C         16.53840848      3.75250073      4.34753473   
    19       C         17.36509765      3.74967425      6.68571723   
    20       C         20.48446520      1.26369682      0.96969541   
    21       C         18.78324682      2.96491520      4.87015459   
    22       C         20.67155064      0.23698111      1.90594016   
    23       C         17.75653111      3.15200064      3.93390984   
    24       C         15.59317036      4.66949734      3.69702216   
    25       C         19.66237784      3.91347036      7.01020266   
    26       C         20.25220269      2.59826606      1.33034119   
    27       C         20.11781606      2.73265269      4.50950881   
    28       C          2.18529523     14.57299528      6.23721675   
    29       C          2.41251211     15.23502404      5.04063149   
    30       C          4.74947993     15.01539896      5.47934438   
    31       C          6.82099152     15.43220073      7.33216527   
    32       C          5.99430235     15.42937425      4.99398277   
    33       C          4.57615318     14.64461520      6.80954541   
    34       C          5.60286889     14.83170064      7.74579016   
    35       C          3.24158394     14.41235269      7.17019119   
    36       C         15.33425477     11.28233325      2.94655472   
    37       C         15.10703789     12.47891851      2.28452596   
    38       C          9.39517404      8.25236211      0.79921851   
    39       C         12.25819554      8.42293245      2.86944534   
    40       C         14.65010466      9.09661755      5.26135446   
    41       C         11.74197616     13.59288158      1.18151845   
    42       C         10.49818155     11.61742384      1.91318158   
    43       C         12.77007007     12.04020562      2.50415104   
    44       C          9.17554896     10.58932993      0.36050562   
    45       C         10.69855848     10.18738473      2.08732591   
    46       C         13.17201527     13.76704927      0.98114152   
    47       C         10.83383277     13.76987575      0.15445235   
    48       C         11.52524765     12.52556723      2.09017575   
    49       C          9.58952425     11.83415235      0.84586723   
    50       C         12.94339682     10.71000459      2.87493480   
    51       C         11.91668111      9.77375984      2.68784936   
    52       C         13.82252784     12.85005266      1.92637964   
    53       C          9.75332036      9.53687216      1.17035266   
    54       C         14.27796606     10.34935881      3.10719731   
    55       C         16.34919734      7.98267784      7.76622964   
    56       C          5.44248325     21.17410477      2.89329528   
    57       C          0.39736675     20.41284528      3.65455477   
    58       C          6.63906851     20.94688789      3.55532404   
    59       C          2.58308245     18.09804554      2.97040466   
    60       C          3.25676755     20.48995466      0.57849554   
    61       C          7.02136845     15.60636842      5.90212616   
    62       C          5.77757384     16.33803155      3.92666842   
    63       C          7.75303158     17.58182616      4.65833155   
    64       C          6.20035562     18.60992007      3.33569896   
    65       C          4.34753473     16.53840848      3.75250073   
    66       C          6.68571723     17.36509765      3.74967425   
    67       C          4.87015459     18.78324682      2.96491520   
    68       C          0.96969541     20.48446520      1.26369682   
    69       C          3.93390984     17.75653111      3.15200064   
    70       C          1.90594016     20.67155064      0.23698111   
    71       C          7.01020266     19.66237784      3.91347036   
    72       C          3.69702216     15.59317036      4.66949734   
    73       C          4.50950881     20.11781606      2.73265269   
    74       C          1.33034119     20.25220269      2.59826606   
    75       C          8.70929534     20.77631755      6.41834554   
    76       C          8.34400104     17.15904438      6.93022007   
    77       C          7.92719927     19.01186527      4.85870848   
    78       C          7.93002575     16.67368277      5.68539765   
    79       C          8.71478480     18.48924541      7.10354682   
    80       C          8.52769936     19.42549016      6.07683111   
    81       C         22.56018149     21.07487404      3.42733789   
    82       C         21.44621842     22.17788155      0.06227616   
    83       C         22.99889438     20.85524896      1.09037007   
    84       C         21.27205073     22.37825848      1.49231527   
    85       C         22.18904734     21.43302036      2.14282784   
    86       C          6.23721675      2.18529523     14.57299528   
    87       C          5.04063149      2.41251211     15.23502404   
    88       C          5.47934438      4.74947993     15.01539896   
    89       C          7.33216527      6.82099152     15.43220073   
    90       C          4.99398277      5.99430235     15.42937425   
    91       C          6.80954541      4.57615318     14.64461520   
    92       C          7.74579016      5.60286889     14.83170064   
    93       C          7.17019119      3.24158394     14.41235269   
    94       C         11.28233325      2.94655472     15.33425477   
    95       C          8.25236211      0.79921851      9.39517404   
    96       C         12.47891851      2.28452596     15.10703789   
    97       C          9.09661755      5.26135446     14.65010466   
    98       C          8.42293245      2.86944534     12.25819554   
    99       C         13.59288158      1.18151845     11.74197616   
   100       C         11.61742384      1.91318158     10.49818155   
   101       C         10.58932993      0.36050562      9.17554896   
   102       C         12.04020562      2.50415104     12.77007007   
   103       C         13.76704927      0.98114152     13.17201527   
   104       C         10.18738473      2.08732591     10.69855848   
   105       C         12.52556723      2.09017575     11.52524765   
   106       C         11.83415235      0.84586723      9.58952425   
   107       C         13.76987575      0.15445235     10.83383277   
   108       C         10.71000459      2.87493480     12.94339682   
   109       C          9.77375984      2.68784936     11.91668111   
   110       C          9.53687216      1.17035266      9.75332036   
   111       C         12.85005266      1.92637964     13.82252784   
   112       C         10.34935881      3.10719731     14.27796606   
   113       C         20.77631755      6.41834554      8.70929534   
   114       C         17.15904438      6.93022007      8.34400104   
   115       C         19.01186527      4.85870848      7.92719927   
   116       C         16.67368277      5.68539765      7.93002575   
   117       C         18.48924541      7.10354682      8.71478480   
   118       C         19.42549016      6.07683111      8.52769936   
   119       C          2.94655472     15.33425477     11.28233325   
   120       C          2.28452596     15.10703789     12.47891851   
   121       C          0.79921851      9.39517404      8.25236211   
   122       C          2.86944534     12.25819554      8.42293245   
   123       C          5.26135446     14.65010466      9.09661755   
   124       C          1.91318158     10.49818155     11.61742384   
   125       C          1.18151845     11.74197616     13.59288158   
   126       C          2.50415104     12.77007007     12.04020562   
   127       C          0.36050562      9.17554896     10.58932993   
   128       C          0.98114152     13.17201527     13.76704927   
   129       C          2.08732591     10.69855848     10.18738473   
   130       C          0.84586723      9.58952425     11.83415235   
   131       C          0.15445235     10.83383277     13.76987575   
   132       C          2.09017575     11.52524765     12.52556723   
   133       C          2.87493480     12.94339682     10.71000459   
   134       C          2.68784936     11.91668111      9.77375984   
   135       C          1.92637964     13.82252784     12.85005266   
   136       C          1.17035266      9.75332036      9.53687216   
   137       C          3.10719731     14.27796606     10.34935881   
   138       C         17.91691675      9.49440477      8.78640472   
   139       C         19.70484523     12.07706675     14.62625472   
   140       C         22.96203325      8.73314528      8.02514523   
   141       C         16.72033149      9.26718789      8.12437596   
   142       C         19.93206211     10.88048149     13.96422596   
   143       C         22.78090446     14.93646755     14.54914534   
   144       C         20.10263245      8.81025466     11.10120446   
   145       C         23.29712384      9.76651842     12.86121845   
   146       C         22.26902993     11.31919438     14.18385104   
   147       C         21.86708473      9.59235073     12.66084152   
   148       C         22.09570318     12.64939541     14.55463480   
   149       C         22.38970459      8.80476520     10.41600318   
   150       C         23.12241889     13.58564016     14.36754936   
   151       C         21.45345984      8.99185064     11.44271889   
   152       C         21.21657216     10.50934734     13.60607964   
   153       C         18.84989119      8.43811606      8.94704731   
   154       C         20.76113394     13.01004119     14.78689731   
   155       C         22.02905881      8.57250269      9.08143394   
   156       C          7.76622964     16.34919734      7.98267784   
   157       C          8.02514523     22.96203325      8.73314528   
   158       C          8.78640472     17.91691675      9.49440477   
   159       C         14.62625472     19.70484523     12.07706675   
   160       C          8.12437596     16.72033149      9.26718789   
   161       C         13.96422596     19.93206211     10.88048149   
   162       C         11.10120446     20.10263245      8.81025466   
   163       C         14.54914534     22.78090446     14.93646755   
   164       C         12.86121845     23.29712384      9.76651842   
   165       C         14.18385104     22.26902993     11.31919438   
   166       C         12.66084152     21.86708473      9.59235073   
   167       C         10.41600318     22.38970459      8.80476520   
   168       C         14.55463480     22.09570318     12.64939541   
   169       C         11.44271889     21.45345984      8.99185064   
   170       C         14.36754936     23.12241889     13.58564016   
   171       C         13.60607964     21.21657216     10.50934734   
   172       C          9.08143394     22.02905881      8.57250269   
   173       C          8.94704731     18.84989119      8.43811606   
   174       C         14.78689731     20.76113394     13.01004119   
   175       C         20.46610472     17.12218325     13.86499523   
   176       C         19.80407596     18.31876851     14.09221211   
   177       C         16.94105446     20.38899534     14.26278245   
   178       C         19.44592964     18.68990266     15.37672216   
   179       C         20.62674731     16.18920881     14.92128394   
   180       C          3.65455477      0.39736675     20.41284528   
   181       C          2.89329528      5.44248325     21.17410477   
   182       C          3.55532404      6.63906851     20.94688789   
   183       C          0.57849554      3.25676755     20.48995466   
   184       C          2.97040466      2.58308245     18.09804554   
   185       C          4.65833155      7.75303158     17.58182616   
   186       C          5.90212616      7.02136845     15.60636842   
   187       C          3.92666842      5.77757384     16.33803155   
   188       C          3.33569896      6.20035562     18.60992007   
   189       C          3.75250073      4.34753473     16.53840848   
   190       C          3.74967425      6.68571723     17.36509765   
   191       C          1.26369682      0.96969541     20.48446520   
   192       C          2.96491520      4.87015459     18.78324682   
   193       C          0.23698111      1.90594016     20.67155064   
   194       C          3.15200064      3.93390984     17.75653111   
   195       C          4.66949734      3.69702216     15.59317036   
   196       C          3.91347036      7.01020266     19.66237784   
   197       C          2.59826606      1.33034119     20.25220269   
   198       C          2.73265269      4.50950881     20.11781606   
   199       C          7.98267784      7.76622964     16.34919734   
   200       C         21.07487404      3.42733789     22.56018149   
   201       C         22.17788155      0.06227616     21.44621842   
   202       C         20.85524896      1.09037007     22.99889438   
   203       C         22.37825848      1.49231527     21.27205073   
   204       C         21.43302036      2.14282784     22.18904734   
   205       C          6.41834554      8.70929534     20.77631755   
   206       C          6.93022007      8.34400104     17.15904438   
   207       C          4.85870848      7.92719927     19.01186527   
   208       C          5.68539765      7.93002575     16.67368277   
   209       C          7.10354682      8.71478480     18.48924541   
   210       C          6.07683111      8.52769936     19.42549016   
   211       C          8.73314528      8.02514523     22.96203325   
   212       C         12.07706675     14.62625472     19.70484523   
   213       C          9.49440477      8.78640472     17.91691675   
   214       C         10.88048149     13.96422596     19.93206211   
   215       C          9.26718789      8.12437596     16.72033149   
   216       C          8.81025466     11.10120446     20.10263245   
   217       C         14.93646755     14.54914534     22.78090446   
   218       C          9.76651842     12.86121845     23.29712384   
   219       C         11.31919438     14.18385104     22.26902993   
   220       C          9.59235073     12.66084152     21.86708473   
   221       C          8.80476520     10.41600318     22.38970459   
   222       C         12.64939541     14.55463480     22.09570318   
   223       C          8.99185064     11.44271889     21.45345984   
   224       C         13.58564016     14.36754936     23.12241889   
   225       C         10.50934734     13.60607964     21.21657216   
   226       C          8.57250269      9.08143394     22.02905881   
   227       C         13.01004119     14.78689731     20.76113394   
   228       C          8.43811606      8.94704731     18.84989119   
   229       C         17.12218325     13.86499523     20.46610472   
   230       C         18.31876851     14.09221211     19.80407596   
   231       C         20.38899534     14.26278245     16.94105446   
   232       C         18.68990266     15.37672216     19.44592964   
   233       C         16.18920881     14.92128394     20.62674731   
   234       C          3.42733789     22.56018149     21.07487404   
   235       C          0.06227616     21.44621842     22.17788155   
   236       C          1.09037007     22.99889438     20.85524896   
   237       C          1.49231527     21.27205073     22.37825848   
   238       C          2.14282784     22.18904734     21.43302036   
   239       C         13.86499523     20.46610472     17.12218325   
   240       C         14.09221211     19.80407596     18.31876851   
   241       C         14.26278245     16.94105446     20.38899534   
   242       C         15.37672216     19.44592964     18.68990266   
   243       C         14.92128394     20.62674731     16.18920881   
   244       C         18.70106845     19.43273158     17.45727384   
   245       C         17.45727384     18.70106845     19.43273158   
   246       C         19.43273158     17.45727384     18.70106845   
   247       C         17.88005562     16.42917993     20.02370104   
   248       C         20.02370104     17.88005562     16.42917993   
   249       C         16.42917993     20.02370104     17.88005562   
   250       C         16.02723473     18.50069152     19.60689927   
   251       C         19.60689927     16.02723473     18.50069152   
   252       C         18.50069152     19.60689927     16.02723473   
   253       C         22.51353277     21.26922425     23.20494765   
   254       C         19.60972575     18.36541723     17.67400235   
   255       C         23.20494765     22.51353277     21.26922425   
   256       C         17.67400235     19.60972575     18.36541723   
   257       C         21.26922425     23.20494765     22.51353277   
   258       C         18.36541723     17.67400235     19.60972575   
   259       C         16.54985459     16.25585318     20.39448480   
   260       C         20.39448480     16.54985459     16.25585318   
   261       C         16.25585318     20.39448480     16.54985459   
   262       C         15.61360984     17.28256889     20.20739936   
   263       C         20.20739936     15.61360984     17.28256889   
   264       C         17.28256889     20.20739936     15.61360984   
   265       B         19.50565963      2.37488012      2.58604910   
   266       B         19.89443012      1.98610963      3.25380090   
   267       B         14.05458012      9.09365090      3.85374037   
   268       B         13.66580963      8.42589910      3.46496988   
   269       B          3.25380090     19.89443012      1.98610963   
   270       B          2.58604910     19.50565963      2.37488012   
   271       B          8.42589910      3.46496988     13.66580963   
   272       B          9.09365090      3.85374037     14.05458012   
   273       B          3.85374037     14.05458012      9.09365090   
   274       B          3.46496988     13.66580963      8.42589910   
   275       B         20.77335090      7.82595963      9.30481988   
   276       B         20.10559910      8.21473012      9.69359037   
   277       B         21.37329037     14.93350090     15.14466988   
   278       B         20.98451988     14.26574910     15.53344037   
   279       B          9.30481988     20.77335090      7.82595963   
   280       B          9.69359037     20.10559910      8.21473012   
   281       B         15.14466988     21.37329037     14.93350090   
   282       B         15.53344037     20.98451988     14.26574910   
   283       B          2.37488012      2.58604910     19.50565963   
   284       B          1.98610963      3.25380090     19.89443012   
   285       B          7.82595963      9.30481988     20.77335090   
   286       B         14.93350090     15.14466988     21.37329037   
   287       B          8.21473012      9.69359037     20.10559910   
   288       B         14.26574910     15.53344037     20.98451988   
   289       H         14.13164278      6.44305979      1.21146520   
   290       H          9.60809497      7.41163395      1.45391242   
   291       H         15.44794497      4.38593758      1.57178395   
   292       H         11.70154104      7.54123190      2.40022507   
   293       H         22.14793480      2.45194278      5.23664021   
   294       H         19.97149278      4.62838480      0.60320979   
   295       H         21.78761605      3.76824497      7.29376242   
   296       H         20.95917493      0.02184104      4.13846810   
   297       H         17.54139104      3.43962493      1.70138190   
   298       H          1.21146520     14.13164278      6.44305979   
   299       H          1.57178395     15.44794497      4.38593758   
   300       H          1.45391242      9.60809497      7.41163395   
   301       H          2.40022507     11.70154104      7.54123190   
   302       H         15.11932493      9.97831810      5.81800896   
   303       H         22.75619021      8.29179278      7.05131520   
   304       H         16.30808480     11.07649021      3.38790722   
   305       H         15.94776605     13.13361242      2.07160503   
   306       H          5.23664021     22.14793480      2.45194278   
   307       H          0.60320979     19.97149278      4.62838480   
   308       H          7.29376242     21.78761605      3.76824497   
   309       H          1.70138190     17.54139104      3.43962493   
   310       H          4.13846810     20.95917493      0.02184104   
   311       H          8.24007507     21.65801810      5.86169104   
   312       H         21.90548758     21.28779497      4.26806605   
   313       H          6.44305979      1.21146520     14.13164278   
   314       H          4.38593758      1.57178395     15.44794497   
   315       H          7.41163395      1.45391242      9.60809497   
   316       H          7.54123190      2.40022507     11.70154104   
   317       H          9.97831810      5.81800896     15.11932493   
   318       H         21.65801810      5.86169104      8.24007507   
   319       H          5.81800896     15.11932493      9.97831810   
   320       H         18.12275979     10.46823480      9.22775722   
   321       H         18.73101520     12.28290979     15.06760722   
   322       H         16.06563758     10.10791605      7.91145503   
   323       H         19.09133395     10.22578758     13.75130503   
   324       H         19.22093190      9.27947493     11.65785896   
   325       H          3.38790722     16.30808480     11.07649021   
   326       H          7.05131520     22.75619021      8.29179278   
   327       H          2.07160503     15.94776605     13.13361242   
   328       H         15.06760722     18.73101520     12.28290979   
   329       H          9.22775722     18.12275979     10.46823480   
   330       H         13.75130503     19.09133395     10.22578758   
   331       H          7.91145503     16.06563758     10.10791605   
   332       H         11.65785896     19.22093190      9.27947493   
   333       H         20.90745722     16.91634021     12.89116520   
   334       H         19.59115503     18.97346242     13.25148395   
   335       H         23.33755896     15.81816810     14.07992507   
   336       H         17.49770896     19.91977507     13.38108190   
   337       H          2.45194278      5.23664021     22.14793480   
   338       H          4.62838480      0.60320979     19.97149278   
   339       H          3.76824497      7.29376242     21.78761605   
   340       H          0.02184104      4.13846810     20.95917493   
   341       H          3.43962493      1.70138190     17.54139104   
   342       H          8.29179278      7.05131520     22.75619021   
   343       H         11.07649021      3.38790722     16.30808480   
   344       H         13.13361242      2.07160503     15.94776605   
   345       H         21.28779497      4.26806605     21.90548758   
   346       H          5.86169104      8.24007507     21.65801810   
   347       H         10.46823480      9.22775722     18.12275979   
   348       H         12.28290979     15.06760722     18.73101520   
   349       H         10.10791605      7.91145503     16.06563758   
   350       H         10.22578758     13.75130503     19.09133395   
   351       H          9.27947493     11.65785896     19.22093190   
   352       H         16.91634021     12.89116520     20.90745722   
   353       H         18.97346242     13.25148395     19.59115503   
   354       H         19.91977507     13.38108190     17.49770896   
   355       H         15.81816810     14.07992507     23.33755896   
   356       H          4.26806605     21.90548758     21.28779497   
   357       H         12.89116520     20.90745722     16.91634021   
   358       H         13.25148395     19.59115503     18.97346242   
   359       H         13.38108190     17.49770896     19.91977507   
   360       H         14.07992507     23.33755896     15.81816810   
   361      Tv         23.35940000      0.00000000      0.00000000   
   362      Tv          0.00000000     23.35940000      0.00000000   
   363      Tv          0.00000000      0.00000000     23.35940000   

                             CARTESIAN COORDINATES

   1    C       14.572995284     6.237216753     2.185295229
   2    C       15.235024039     5.040631488     2.412512113
   3    C       15.015398961     5.479344380     4.749479927
   4    C       15.432200735     7.332165269     6.820991519
   5    C       15.429374247     4.993982767     5.994302353
   6    C       14.644615204     6.809545413     4.576153179
   7    C       14.831700639     7.745790165     5.602868887
   8    C       14.412352690     7.170191189     3.241583938
   9    C       20.412845284     3.654554771     0.397366753
  10    C       21.174104771     2.893295284     5.442483247
  11    C       20.946887887     3.555324039     6.639068512
  12    C       20.489954663     0.578495541     3.256767548
  13    C       18.098045541     2.970404663     2.583082452
  14    C       16.338031548     3.926668421     5.777573840
  15    C       17.581826160     4.658331548     7.753031579
  16    C       15.606368421     5.902126160     7.021368452
  17    C       18.609920073     3.335698961     6.200355620
  18    C       16.538408481     3.752500735     4.347534731
  19    C       17.365097647     3.749674247     6.685717233
  20    C       20.484465204     1.263696821     0.969695413
  21    C       18.783246821     2.964915204     4.870154587
  22    C       20.671550639     0.236981113     1.905940165
  23    C       17.756531113     3.152000639     3.933909835
  24    C       15.593170360     4.669497341     3.697022160
  25    C       19.662377840     3.913470360     7.010202659
  26    C       20.252202690     2.598266062     1.330341189
  27    C       20.117816062     2.732652690     4.509508811
  28    C        2.185295229    14.572995284     6.237216753
  29    C        2.412512113    15.235024039     5.040631488
  30    C        4.749479927    15.015398961     5.479344380
  31    C        6.820991519    15.432200735     7.332165269
  32    C        5.994302353    15.429374247     4.993982767
  33    C        4.576153179    14.644615204     6.809545413
  34    C        5.602868887    14.831700639     7.745790165
  35    C        3.241583938    14.412352690     7.170191189
  36    C       15.334254771    11.282333247     2.946554716
  37    C       15.107037887    12.478918512     2.284525961
  38    C        9.395174039     8.252362113     0.799218512
  39    C       12.258195541     8.422932452     2.869445337
  40    C       14.650104663     9.096617548     5.261354459
  41    C       11.741976160    13.592881579     1.181518452
  42    C       10.498181548    11.617423840     1.913181579
  43    C       12.770070073    12.040205620     2.504151039
  44    C        9.175548961    10.589329927     0.360505620
  45    C       10.698558481    10.187384731     2.087325906
  46    C       13.172015269    13.767049265     0.981141519
  47    C       10.833832767    13.769875753     0.154452353
  48    C       11.525247647    12.525567233     2.090175753
  49    C        9.589524247    11.834152353     0.845867233
  50    C       12.943396821    10.710004587     2.874934796
  51    C       11.916681113     9.773759835     2.687849361
  52    C       13.822527840    12.850052659     1.926379640
  53    C        9.753320360     9.536872160     1.170352659
  54    C       14.277966062    10.349358811     3.107197310
  55    C       16.349197341     7.982677840     7.766229640
  56    C        5.442483247    21.174104771     2.893295284
  57    C        0.397366753    20.412845284     3.654554771
  58    C        6.639068512    20.946887887     3.555324039
  59    C        2.583082452    18.098045541     2.970404663
  60    C        3.256767548    20.489954663     0.578495541
  61    C        7.021368452    15.606368421     5.902126160
  62    C        5.777573840    16.338031548     3.926668421
  63    C        7.753031579    17.581826160     4.658331548
  64    C        6.200355620    18.609920073     3.335698961
  65    C        4.347534731    16.538408481     3.752500735
  66    C        6.685717233    17.365097647     3.749674247
  67    C        4.870154587    18.783246821     2.964915204
  68    C        0.969695413    20.484465204     1.263696821
  69    C        3.933909835    17.756531113     3.152000639
  70    C        1.905940165    20.671550639     0.236981113
  71    C        7.010202659    19.662377840     3.913470360
  72    C        3.697022160    15.593170360     4.669497341
  73    C        4.509508811    20.117816062     2.732652690
[...]
  293          H           0.165174        0.8348     0.83483
  294          H           0.165175        0.8348     0.83482
  295          H           0.161891        0.8381     0.83811
  296          H           0.171808        0.8282     0.82819
  297          H           0.171808        0.8282     0.82819
  298          H           0.165176        0.8348     0.83482
  299          H           0.161890        0.8381     0.83811
  300          H           0.161891        0.8381     0.83811
  301          H           0.171808        0.8282     0.82819
  302          H           0.171808        0.8282     0.82819
  303          H           0.165175        0.8348     0.83483
  304          H           0.165174        0.8348     0.83483
  305          H           0.161888        0.8381     0.83811
  306          H           0.165174        0.8348     0.83483
  307          H           0.165175        0.8348     0.83482
  308          H           0.161891        0.8381     0.83811
  309          H           0.171808        0.8282     0.82819
  310          H           0.171808        0.8282     0.82819
  311          H           0.171808        0.8282     0.82819
  312          H           0.161889        0.8381     0.83811
  313          H           0.165176        0.8348     0.83482
  314          H           0.161890        0.8381     0.83811
  315          H           0.161891        0.8381     0.83811
  316          H           0.171808        0.8282     0.82819
  317          H           0.171808        0.8282     0.82819
  318          H           0.171808        0.8282     0.82819
  319          H           0.171808        0.8282     0.82819
  320          H           0.165175        0.8348     0.83483
  321          H           0.165175        0.8348     0.83482
  322          H           0.161888        0.8381     0.83811
  323          H           0.161888        0.8381     0.83811
  324          H           0.171808        0.8282     0.82819
  325          H           0.165174        0.8348     0.83483
  326          H           0.165175        0.8348     0.83483
  327          H           0.161888        0.8381     0.83811
  328          H           0.165175        0.8348     0.83482
  329          H           0.165175        0.8348     0.83483
  330          H           0.161888        0.8381     0.83811
  331          H           0.161888        0.8381     0.83811
  332          H           0.171808        0.8282     0.82819
  333          H           0.165174        0.8348     0.83483
  334          H           0.161889        0.8381     0.83811
  335          H           0.171808        0.8282     0.82819
  336          H           0.171808        0.8282     0.82819
  337          H           0.165174        0.8348     0.83483
  338          H           0.165175        0.8348     0.83482
  339          H           0.161891        0.8381     0.83811
  340          H           0.171808        0.8282     0.82819
  341          H           0.171808        0.8282     0.82819
  342          H           0.165175        0.8348     0.83483
  343          H           0.165174        0.8348     0.83483
  344          H           0.161888        0.8381     0.83811
  345          H           0.161889        0.8381     0.83811
  346          H           0.171808        0.8282     0.82819
  347          H           0.165175        0.8348     0.83483
  348          H           0.165175        0.8348     0.83482
  349          H           0.161888        0.8381     0.83811
  350          H           0.161888        0.8381     0.83811
  351          H           0.171808        0.8282     0.82819
  352          H           0.165174        0.8348     0.83483
  353          H           0.161889        0.8381     0.83811
  354          H           0.171808        0.8282     0.82819
  355          H           0.171808        0.8282     0.82819
  356          H           0.161889        0.8381     0.83811
  357          H           0.165174        0.8348     0.83483
  358          H           0.161889        0.8381     0.83811
  359          H           0.171808        0.8282     0.82819
  360          H           0.171808        0.8282     0.82819


          ATOMIC ORBITAL ELECTRON POPULATIONS

     Atom    s        px        py        pz   
    1  C   1.08302   1.01864   0.97866   1.07311
    2  C   1.07847   0.98598   1.00665   1.04065
    3  C   1.06390   1.00535   0.97467   0.98593
    4  C   1.07445   0.99495   0.97053   0.98413
    5  C   1.05395   1.01355   0.98794   0.97735
    6  C   1.05306   0.98498   0.98575   0.98736
    7  C   1.06125   0.97787   0.98371   0.96476
    8  C   1.05988   0.98617   0.92662   0.96987
    9  C   1.08302   1.01864   1.07311   0.97866
   10  C   1.08302   1.07311   1.01864   0.97866
   11  C   1.07847   1.04065   0.98598   1.00665
   12  C   1.13739   0.93588   0.94277   1.01538
   13  C   1.13739   0.94277   0.93589   1.01538
   14  C   1.06890   0.96774   0.96888   0.96325
   15  C   1.06890   0.96325   0.96773   0.96887
   16  C   1.06890   0.96889   0.96325   0.96775
   17  C   1.06390   0.98592   1.00535   0.97466
   18  C   1.07444   0.98414   0.99499   0.97053
   19  C   1.05394   0.97735   1.01356   0.98795
   20  C   1.05306   0.98499   0.98736   0.98575
   21  C   1.05306   0.98736   0.98498   0.98575
   22  C   1.06126   0.97785   0.96476   0.98371
   23  C   1.06126   0.96475   0.97784   0.98371
   24  C   1.06719   0.98489   0.98701   0.97391
   25  C   1.06719   0.97391   0.98488   0.98700
   26  C   1.05988   0.98617   0.96987   0.92662
   27  C   1.05987   0.96987   0.98618   0.92662
   28  C   1.08302   1.07311   1.01864   0.97866
   29  C   1.07847   1.04065   0.98598   1.00665
   30  C   1.06390   0.98593   1.00535   0.97467
   31  C   1.07445   0.98413   0.99495   0.97053
   32  C   1.05395   0.97735   1.01355   0.98794
   33  C   1.05306   0.98736   0.98498   0.98575
   34  C   1.06125   0.96476   0.97787   0.98371
   35  C   1.05988   0.96987   0.98617   0.92662
   36  C   1.08302   1.07311   0.97867   1.01865
   37  C   1.07847   1.04065   1.00665   0.98597
   38  C   1.07847   0.98598   1.04065   1.00665
   39  C   1.13738   0.94277   1.01538   0.93594
   40  C   1.13739   0.93584   1.01538   0.94277
   41  C   1.06890   0.96325   0.96888   0.96774
   42  C   1.06890   0.96773   0.96325   0.96887
   43  C   1.06390   0.98592   0.97466   1.00533
   44  C   1.06390   1.00536   0.98593   0.97467
   45  C   1.07443   0.98415   0.97053   0.99502
   46  C   1.07444   0.97053   0.99498   0.98414
   47  C   1.05394   0.98795   1.01357   0.97735
   48  C   1.05394   0.97735   0.98795   1.01358
   49  C   1.05395   1.01355   0.97734   0.98794
   50  C   1.05306   0.98736   0.98575   0.98499
   51  C   1.06126   0.96475   0.98371   0.97782
   52  C   1.06719   0.97391   0.98701   0.98490
   53  C   1.06719   0.98488   0.97391   0.98700
   54  C   1.05988   0.96987   0.92662   0.98617
   55  C   1.06719   0.98702   0.97391   0.98491
   56  C   1.08302   0.97866   1.07311   1.01864
   57  C   1.08302   0.97866   1.01864   1.07311
   58  C   1.07847   1.00665   1.04065   0.98598
   59  C   1.13739   1.01538   0.94277   0.93589
   60  C   1.13739   1.01538   0.93588   0.94277
   61  C   1.06890   0.96775   0.96889   0.96325
   62  C   1.06890   0.96325   0.96774   0.96888
   63  C   1.06890   0.96887   0.96325   0.96773
   64  C   1.06390   0.97466   0.98592   1.00535
   65  C   1.07444   0.97053   0.98414   0.99499
   66  C   1.05394   0.98795   0.97735   1.01356
   67  C   1.05306   0.98575   0.98736   0.98498
   68  C   1.05306   0.98575   0.98499   0.98736
   69  C   1.06126   0.98371   0.96475   0.97784
   70  C   1.06126   0.98371   0.97785   0.96476
   71  C   1.06719   0.98700   0.97391   0.98488
   72  C   1.06719   0.97391   0.98489   0.98701
   73  C   1.05987   0.92662   0.96987   0.98618
   74  C   1.05988   0.92662   0.98617   0.96987
   75  C   1.13738   0.93592   1.01538   0.94277
   76  C   1.06390   1.00533   0.97466   0.98592
   77  C   1.07444   0.99501   0.97053   0.98415
   78  C   1.05394   1.01358   0.98795   0.97735
   79  C   1.05306   0.98500   0.98575   0.98736
   80  C   1.06126   0.97783   0.98371   0.96475
   81  C   1.07847   1.00665   0.98597   1.04065
   82  C   1.06890   0.96888   0.96774   0.96325
   83  C   1.06390   0.97466   1.00534   0.98592
   84  C   1.07444   0.99498   0.98414   0.97053
   85  C   1.06719   0.98701   0.98489   0.97391
   86  C   1.08302   0.97866   1.07311   1.01864
   87  C   1.07847   1.00665   1.04065   0.98598
   88  C   1.06390   0.97467   0.98593   1.00535
   89  C   1.07445   0.97053   0.98413   0.99495
   90  C   1.05395   0.98794   0.97735   1.01355
   91  C   1.05306   0.98575   0.98736   0.98498
   92  C   1.06125   0.98371   0.96476   0.97787
   93  C   1.05988   0.92662   0.96987   0.98617
   94  C   1.08302   0.97867   1.01865   1.07311
   95  C   1.07847   1.04065   1.00665   0.98598
   96  C   1.07847   1.00665   0.98597   1.04065
   97  C   1.13739   1.01538   0.94277   0.93584
   98  C   1.13738   1.01538   0.93594   0.94277
   99  C   1.06890   0.96888   0.96774   0.96325
  100  C   1.06890   0.96325   0.96887   0.96773
  101  C   1.06390   0.98593   0.97467   1.00536
  102  C   1.06390   0.97466   1.00533   0.98592
  103  C   1.07444   0.99498   0.98414   0.97053
  104  C   1.07443   0.97053   0.99502   0.98415
  105  C   1.05394   0.98795   1.01358   0.97735
  106  C   1.05395   0.97734   0.98794   1.01355
  107  C   1.05394   1.01357   0.97735   0.98795
  108  C   1.05306   0.98575   0.98499   0.98736
  109  C   1.06126   0.98371   0.97782   0.96475
  110  C   1.06719   0.97391   0.98700   0.98488
  111  C   1.06719   0.98701   0.98490   0.97391
  112  C   1.05988   0.92662   0.98617   0.96987
  113  C   1.13738   1.01538   0.94277   0.93592
  114  C   1.06390   0.97466   0.98592   1.00533
  115  C   1.07444   0.97053   0.98415   0.99501
  116  C   1.05394   0.98795   0.97735   1.01358
  117  C   1.05306   0.98575   0.98736   0.98500
  118  C   1.06126   0.98371   0.96475   0.97783
  119  C   1.08302   1.01865   1.07311   0.97867
  120  C   1.07847   0.98597   1.04065   1.00665
  121  C   1.07847   1.00665   0.98598   1.04065
  122  C   1.13738   0.93594   0.94277   1.01538
  123  C   1.13739   0.94277   0.93584   1.01538
  124  C   1.06890   0.96887   0.96773   0.96325
  125  C   1.06890   0.96774   0.96325   0.96888
  126  C   1.06390   1.00533   0.98592   0.97466
  127  C   1.06390   0.97467   1.00536   0.98593
  128  C   1.07444   0.98414   0.97053   0.99498
  129  C   1.07443   0.99502   0.98415   0.97053
  130  C   1.05395   0.98794   1.01355   0.97734
  131  C   1.05394   0.97735   0.98795   1.01357
  132  C   1.05394   1.01358   0.97735   0.98795
  133  C   1.05306   0.98499   0.98736   0.98575
  134  C   1.06126   0.97782   0.96475   0.98371
  135  C   1.06719   0.98490   0.97391   0.98701
  136  C   1.06719   0.98700   0.98488   0.97391
  137  C   1.05988   0.98617   0.96987   0.92662
  138  C   1.08302   0.97867   1.07311   1.01865
  139  C   1.08302   1.07311   0.97867   1.01865
  140  C   1.08303   0.97866   1.01863   1.07311
  141  C   1.07847   1.00665   1.04065   0.98597
  142  C   1.07847   1.04065   1.00665   0.98597
  143  C   1.13739   0.94277   1.01538   0.93588
  144  C   1.13739   1.01538   0.93585   0.94277
  145  C   1.06890   0.96325   0.96889   0.96775
  146  C   1.06390   0.98592   0.97466   1.00533
  147  C   1.07444   0.97053   0.99496   0.98413
  148  C   1.05306   0.98736   0.98575   0.98499
  149  C   1.05306   0.98575   0.98498   0.98736
  150  C   1.06126   0.96476   0.98371   0.97785
  151  C   1.06125   0.98371   0.97786   0.96476
  152  C   1.06719   0.97391   0.98701   0.98490
  153  C   1.05988   0.92662   0.96987   0.98616
  154  C   1.05988   0.96987   0.92662   0.98616
  155  C   1.05987   0.92662   0.98618   0.96987
  156  C   1.06719   0.98491   0.98702   0.97391
  157  C   1.08303   1.07311   0.97866   1.01863
  158  C   1.08302   1.01865   0.97867   1.07311
  159  C   1.08302   1.01865   1.07311   0.97867
  160  C   1.07847   0.98597   1.00665   1.04065
  161  C   1.07847   0.98597   1.04065   1.00665
  162  C   1.13739   0.94277   1.01538   0.93585
  163  C   1.13739   0.93588   0.94277   1.01538
  164  C   1.06890   0.96775   0.96325   0.96889
  165  C   1.06390   1.00533   0.98592   0.97466
  166  C   1.07444   0.98413   0.97053   0.99496
  167  C   1.05306   0.98736   0.98575   0.98498
  168  C   1.05306   0.98499   0.98736   0.98575
  169  C   1.06125   0.96476   0.98371   0.97786
  170  C   1.06126   0.97785   0.96476   0.98371
  171  C   1.06719   0.98490   0.97391   0.98701
  172  C   1.05987   0.96987   0.92662   0.98618
  173  C   1.05988   0.98616   0.92662   0.96987
  174  C   1.05988   0.98616   0.96987   0.92662
  175  C   1.08302   1.01864   0.97867   1.07311
  176  C   1.07847   0.98598   1.00665   1.04065
  177  C   1.13739   0.94277   0.93589   1.01538
  178  C   1.06719   0.98489   0.98701   0.97391
  179  C   1.05988   0.98617   0.92662   0.96987
  180  C   1.08302   1.07311   0.97866   1.01864
  181  C   1.08302   1.01864   0.97866   1.07311
  182  C   1.07847   0.98598   1.00665   1.04065
  183  C   1.13739   0.94277   1.01538   0.93588
  184  C   1.13739   0.93589   1.01538   0.94277
  185  C   1.06890   0.96773   0.96887   0.96325
  186  C   1.06890   0.96325   0.96775   0.96889
  187  C   1.06890   0.96888   0.96325   0.96774
  188  C   1.06390   1.00535   0.97466   0.98592
  189  C   1.07444   0.99499   0.97053   0.98414
  190  C   1.05394   1.01356   0.98795   0.97735
  191  C   1.05306   0.98736   0.98575   0.98499
  192  C   1.05306   0.98498   0.98575   0.98736
  193  C   1.06126   0.96476   0.98371   0.97785
  194  C   1.06126   0.97784   0.98371   0.96475
  195  C   1.06719   0.98701   0.97391   0.98489
  196  C   1.06719   0.98488   0.98700   0.97391
  197  C   1.05988   0.96987   0.92662   0.98617
  198  C   1.05987   0.98618   0.92662   0.96987
  199  C   1.06719   0.97391   0.98491   0.98702
  200  C   1.07847   0.98597   1.04065   1.00665
  201  C   1.06890   0.96774   0.96325   0.96888
  202  C   1.06390   1.00534   0.98592   0.97466
  203  C   1.07444   0.98414   0.97053   0.99498
  204  C   1.06719   0.98489   0.97391   0.98701
  205  C   1.13738   0.94277   0.93592   1.01538
  206  C   1.06390   0.98592   1.00533   0.97466
  207  C   1.07444   0.98415   0.99501   0.97053
  208  C   1.05394   0.97735   1.01358   0.98795
  209  C   1.05306   0.98736   0.98500   0.98575
  210  C   1.06126   0.96475   0.97783   0.98371
  211  C   1.08303   1.01863   1.07311   0.97866
  212  C   1.08302   0.97867   1.01865   1.07311
  213  C   1.08302   1.07311   1.01865   0.97867
  214  C   1.07847   1.00665   0.98597   1.04065
  215  C   1.07847   1.04065   0.98597   1.00665
  216  C   1.13739   0.93585   0.94277   1.01538
  217  C   1.13739   1.01538   0.93588   0.94277
  218  C   1.06890   0.96889   0.96775   0.96325
  219  C   1.06390   0.97466   1.00533   0.98592
  220  C   1.07444   0.99496   0.98413   0.97053
  221  C   1.05306   0.98498   0.98736   0.98575
  222  C   1.05306   0.98575   0.98499   0.98736
  223  C   1.06125   0.97786   0.96476   0.98371
  224  C   1.06126   0.98371   0.97785   0.96476
  225  C   1.06719   0.98701   0.98490   0.97391
  226  C   1.05987   0.98618   0.96987   0.92662
  227  C   1.05988   0.92662   0.98616   0.96987
  228  C   1.05988   0.96987   0.98616   0.92662
  229  C   1.08302   0.97867   1.07311   1.01864
  230  C   1.07847   1.00665   1.04065   0.98598
  231  C   1.13739   0.93589   1.01538   0.94277
  232  C   1.06719   0.98701   0.97391   0.98489
  233  C   1.05988   0.92662   0.96987   0.98617
  234  C   1.07847   1.04065   1.00665   0.98597
  235  C   1.06890   0.96325   0.96888   0.96774
  236  C   1.06390   0.98592   0.97466   1.00534
  237  C   1.07444   0.97053   0.99498   0.98414
  238  C   1.06719   0.97391   0.98701   0.98489
  239  C   1.08302   1.07311   1.01864   0.97867
  240  C   1.07847   1.04065   0.98598   1.00665
  241  C   1.13739   1.01538   0.94277   0.93589
  242  C   1.06719   0.97391   0.98489   0.98701
  243  C   1.05988   0.96987   0.98617   0.92662
  244  C   1.06890   0.96774   0.96888   0.96325
  245  C   1.06890   0.96325   0.96774   0.96888
  246  C   1.06890   0.96888   0.96325   0.96774
  247  C   1.06390   0.97466   0.98592   1.00534
  248  C   1.06390   1.00534   0.97466   0.98592
  249  C   1.06390   0.98592   1.00534   0.97466
  250  C   1.07444   0.97053   0.98414   0.99499
  251  C   1.07444   0.99499   0.97053   0.98414
  252  C   1.07444   0.98414   0.99499   0.97053
  253  C   1.05394   0.98795   1.01356   0.97735
  254  C   1.05394   1.01357   0.98795   0.97735
  255  C   1.05394   0.97735   0.98795   1.01356
  256  C   1.05394   0.97735   1.01357   0.98795
  257  C   1.05394   1.01356   0.97735   0.98795
  258  C   1.05394   0.98795   0.97735   1.01357
  259  C   1.05306   0.98575   0.98736   0.98499
  260  C   1.05306   0.98499   0.98575   0.98736
  261  C   1.05306   0.98736   0.98499   0.98575
  262  C   1.06126   0.98371   0.96475   0.97784
  263  C   1.06126   0.97784   0.98371   0.96475
  264  C   1.06126   0.96475   0.97784   0.98371
  265  B   0.60139   0.93914   0.81768   0.83430
  266  B   0.60139   0.81768   0.93913   0.83429
  267  B   0.60139   0.81768   0.83430   0.93913
  268  B   0.60139   0.93915   0.83430   0.81767
  269  B   0.60139   0.83429   0.81768   0.93913
  270  B   0.60139   0.83430   0.93914   0.81768
  271  B   0.60139   0.83430   0.81767   0.93915
  272  B   0.60139   0.83430   0.93913   0.81768
  273  B   0.60139   0.93913   0.81768   0.83430
  274  B   0.60139   0.81767   0.93915   0.83430
  275  B   0.60139   0.83430   0.93914   0.81768
  276  B   0.60139   0.83430   0.81768   0.93913
  277  B   0.60139   0.93914   0.83430   0.81768
  278  B   0.60139   0.81768   0.83430   0.93914
  279  B   0.60139   0.81768   0.83430   0.93914
  280  B   0.60139   0.93913   0.83430   0.81768
  281  B   0.60139   0.81768   0.93914   0.83430
  282  B   0.60139   0.93914   0.81768   0.83430
  283  B   0.60139   0.81768   0.83430   0.93914
  284  B   0.60139   0.93913   0.83429   0.81768
  285  B   0.60139   0.93914   0.81768   0.83430
  286  B   0.60139   0.83430   0.81768   0.93914
  287  B   0.60139   0.81768   0.93913   0.83430
  288  B   0.60139   0.83430   0.93914   0.81768
  289  H   0.83482
  290  H   0.83811
  291  H   0.83811
  292  H   0.82819
  293  H   0.83483
  294  H   0.83482
  295  H   0.83811
  296  H   0.82819
  297  H   0.82819
  298  H   0.83482
  299  H   0.83811
  300  H   0.83811
  301  H   0.82819
  302  H   0.82819
  303  H   0.83483
  304  H   0.83483
  305  H   0.83811
  306  H   0.83483
  307  H   0.83482
  308  H   0.83811
  309  H   0.82819
  310  H   0.82819
  311  H   0.82819
  312  H   0.83811
  313  H   0.83482
  314  H   0.83811
  315  H   0.83811
  316  H   0.82819
  317  H   0.82819
  318  H   0.82819
  319  H   0.82819
  320  H   0.83483
  321  H   0.83482
  322  H   0.83811
  323  H   0.83811
  324  H   0.82819
  325  H   0.83483
  326  H   0.83483
  327  H   0.83811
  328  H   0.83482
  329  H   0.83483
  330  H   0.83811
  331  H   0.83811
  332  H   0.82819
  333  H   0.83483
  334  H   0.83811
  335  H   0.82819
  336  H   0.82819
  337  H   0.83483
  338  H   0.83482
  339  H   0.83811
  340  H   0.82819
  341  H   0.82819
  342  H   0.83483
  343  H   0.83483
  344  H   0.83811
  345  H   0.83811
  346  H   0.82819
  347  H   0.83483
  348  H   0.83482
  349  H   0.83811
  350  H   0.83811
  351  H   0.82819
  352  H   0.83483
  353  H   0.83811
  354  H   0.82819
  355  H   0.82819
  356  H   0.83811
  357  H   0.83483
  358  H   0.83811
  359  H   0.82819
  360  H   0.82819

 **********************
 *                    *
 * JOB ENDED NORMALLY *
 *                    *
 **********************



 TOTAL JOB TIME:           185.75 SECONDS

 == MOPAC DONE ==
