 *******************************************************************************
 **                                                                           **
 **                              MOPAC v22.1.0                                **
 **                                                                           **
 *******************************************************************************
 **          Digital Object Identifier (DOI): 10.5281/zenodo.6511958          **
 **    Visit the DOI location for information on how to cite this program.    **
 *******************************************************************************

                              PM7 CALCULATION RESULTS

 *******************************************************************************
 *  CALCULATION DONE:                                Thu Feb  1 11:33:11 2024  *
 *  PM7        - The PM7 Hamiltonian to be used
 *  NOOPT      - DO NOT OPTIMIZE ANY COORDINATES
 *
 *
 *
 *                 CHARGE ON SYSTEM = 0
 *
 *
 *
 *  T=         - A TIME OF 172800.0 SECONDS REQUESTED
 *  DUMP=N     - RESTART FILE WRITTEN EVERY 7200.0 SECONDS REQUESTED
 *******************************************************************************
PM7 CHARGE=0 NOOPT


   ATOM   CHEMICAL          X               Y               Z
  NUMBER   SYMBOL      (ANGSTROMS)     (ANGSTROMS)     (ANGSTROMS)

     1       C         14.28795523      6.06655690      2.53717005   
     2       C         15.06420468      4.94118443      2.62445676   
     3       C         15.74969214      5.06198619      6.11185458   
     4       C         15.14937289      6.90595651      4.59327539   
     5       C         15.46933686      7.86808593      5.57071034   
     6       C         14.36410199      7.09778731      3.44724166   
     7       C         15.97689465      7.44817190      6.79579483   
     8       C         20.31214225      3.38825708      0.05493802   
     9       C         21.25292012      2.36485795      5.79186681   
    10       C         21.14656697      3.11701846      6.93173548   
    11       C         21.21819110      0.76092012      3.18197767   
    12       C         18.67214242      3.35462301      2.64971206   
    13       C         19.82617406      2.61695872      2.38259141   
    14       C         20.49704629      1.92394941      3.45128822   
    15       C         16.75602430      4.14039378      5.72816917   
    16       C         18.02785847      4.79319931      7.70772309   
    17       C         16.06330063      6.08029140      7.03970725   
    18       C         17.02428750      4.08276599      4.36266901   
    19       C         17.66223977      3.80540993      6.75887591   
    20       C         21.15080396      1.32798616      0.90635829   
    21       C         19.21764267      3.25317334      4.92906855   
    22       C         21.46298425      0.35750178      1.87800904   
    23       C         18.25910754      3.58925215      3.95334744   
    24       C         16.04111595      4.68291862      3.57501778   
    25       C         20.19031696      4.08688396      7.19402405   
    26       C         20.37857727      2.48413630      1.09204784   
    27       C         20.36151030      2.46314178      4.74637822   
    28       C         19.39159719      5.05865373      7.79800901   
    29       C          2.62866994     14.25139336      6.06043945   
    30       C          2.72859620     15.01490804      4.92761655   
    31       C          6.21006700     15.75035863      5.10045232   
    32       C          4.66713703     15.13492428      6.92226177   
    33       C          5.62422016     15.47338342      7.89855416   
    34       C          3.52295996     14.34436905      7.10419040   
    35       C         15.24303888     11.79167925      3.59960659   
    36       C         15.14801610     12.93016733      2.84397080   
    37       C          9.07703179      8.64016980      0.94349144   
    38       C         12.65633416      8.66047402      2.59067987   
    39       C         15.21033314      9.17479194      5.18507306   
    40       C         14.48185692      9.45176715      4.02773276   
    41       C         13.80931845      8.38816426      3.32827276   
    42       C         12.05399163     13.71215338      1.12225423   
    43       C         10.76335284     11.74181133      1.76482434   
    44       C         11.02587945     10.37600173      1.83452041   
    45       C         13.42206255     13.79289417      0.87584246   
    46       C         11.03466287     14.04249559      0.20151875   
    47       C         11.66935409     12.76959026      2.10837739   
    48       C          9.77418287     12.12366389      0.82435592   
    49       C         13.20776143     10.93792625      2.70117479   
    50       C         12.25072591      9.96539478      2.35140909   
    51       C         14.20390577     13.19052784      1.86182279   
    52       C         10.05230064      9.58806486      1.21820534   
    53       C         14.34827279     10.74961834      3.49489587   
    54       C         16.56819245      8.23160995      7.78732133   
    55       C          6.85016157     15.99348555      7.49718290   
    56       C          5.83454612     21.23994732      2.38025869   
    57       C          0.10925715     20.19436352      3.32474987   
    58       C          6.95884744     21.15913511      3.15881706   
    59       C          2.72721561     18.59811415      3.31868003   
    60       C          3.24986469     21.15511235      0.73214193   
    61       C          3.51705674     20.43787129      1.89855129   
    62       C          2.45143056     19.74724231      2.57713579   
    63       C          7.11461624     16.08277173      6.13318234   
    64       C          5.82571510     16.74688383      4.16888633   
    65       C          7.76485102     18.06101647      4.85751583   
    66       C          4.45735854     16.98870156      4.08376573   
    67       C          6.84325861     17.67437945      3.85215961   
    68       C          4.99619386     19.18905490      3.25433971   
    69       C          0.97060340     21.05175842      1.27552369   
    70       C          4.03425486     18.21266730      3.57701725   
    71       C          1.94665776     21.38324319      0.31634587   
    72       C          7.21901752     20.21200176      4.13860853   
    73       C          3.67589617     15.99627053      4.67570622   
    74       C          4.80538660     20.32799525      2.45942847   
    75       C          1.15434108     20.27912707      2.43124536   
    76       C          7.82000326     19.42713552      5.12375575   
    77       C          8.52579494     21.14454369      6.77596668   
    78       C          8.10104884     17.03238062      5.76580219   
    79       C          8.65066706     18.86563945      7.31801545   
    80       C          8.30735205     19.83608417      6.35981357   
    81       C         22.78109204     20.95897315      3.21615921   
    82       C         22.02840786     22.66331331      0.10428226   
    83       C         21.95047585     22.92412608      1.46959200   
    84       C         22.53432322     21.93452764      2.26136120   
    85       C          5.92283257      2.52750591     14.23811112   
    86       C          4.71883780      2.55452266     14.87972909   
    87       C          5.07748214      6.22651508     15.57411899   
    88       C          6.70986491      4.52115139     15.39561804   
    89       C          7.72067209      5.48099569     15.67452132   
    90       C          6.92937895      3.43312630     14.50834999   
    91       C         11.62779352      3.43857726     15.50385165   
    92       C          8.52208163      1.05205830      9.20428423   
    93       C         12.79127507      2.73257135     15.36091282   
    94       C          9.02599751      5.03396970     15.51273028   
    95       C          8.53369764      2.67004008     12.78475297   
    96       C          8.24020294      3.31556180     13.98870013   
    97       C          9.30437711      3.91504793     14.73971808   
    98       C         13.61132259      1.20185247     12.16662885   
    99       C         11.62131902      1.85708594     10.91040964   
   100       C         13.71182013      0.90452544     13.52113189   
   101       C         10.25503335      1.91259524     11.17031788   
   102       C         12.64381362      2.18107267     11.82912184   
   103       C         12.01269290      0.95398870      9.89070002   
   104       C         13.95051963      0.32160640     11.11521324   
   105       C         10.79898638      2.64945022     13.40908975   
   106       C          9.83940391      2.39118441     12.40951773   
   107       C          9.47357098      1.31798878     10.17817249   
   108       C         13.08319876      1.83325883     14.34822519   
   109       C         10.59549196      3.37288015     14.59461316   
   110       C         21.09424731      6.69206004      8.56383262   
   111       C         21.36015399      7.84816257      9.29740275   
   112       C         16.99439055      5.69798659      8.03756544   
   113       C         18.81531928      7.24346351      8.65121454   
   114       C         19.79199252      6.28602333      8.31494530   
   115       C          3.60065393     15.25420263     11.79817755   
   116       C          2.83563964     15.15432398     12.93000071   
   117       C          1.02249460      9.07127139      8.62731602   
   118       C          2.65309213     12.64528943      8.66649625   
   119       C          5.21925460     15.22249663      9.20088036   
   120       C          4.06472309     14.48618912      9.46685845   
   121       C          3.38680508     13.80117772      8.39778079   
   122       C          1.80507572     10.75614044     11.74219219   
   123       C          1.13498900     12.04480355     13.70448871   
   124       C          0.87819899     13.41092260     13.78213508   
   125       C          1.88672105     11.01747688     10.37721569   
   126       C          0.86691622      9.76149571     12.11583260   
   127       C          0.21853811     11.01952397     14.02788036   
   128       C          2.13279957     11.66625966     12.77170876   
   129       C          2.73019102     13.20780904     10.94268691   
   130       C          2.39975359     12.24458466      9.96986980   
   131       C          1.86253689     14.19964498     13.18605282   
   132       C          1.28395006     10.04082744      9.58404210   
   133       C          3.51643785     14.35436644     10.75859218   
   134       C         17.95225919      9.28152595      9.53234133   
   135       C         20.43989457     12.00502824     15.49154534   
   136       C         23.69116365      8.31051789      8.52722314   
   137       C         16.81972193      9.17955260      8.76837438   
   138       C         20.53710725     10.87094376     14.72914941   
   139       C         23.05045020     15.12942572     14.52258437   
   140       C         20.56152944      9.25848435     11.13932598   
   141       C         20.29131436      8.52581875      9.98303303   
   142       C         21.89358596     15.40311608     15.25232217   
   143       C         23.64281914     10.08848165     13.02857018   
   144       C         22.27674770     10.01276335     12.76959026   
   145       C         22.48559786     12.85454425     14.61548865   
   146       C         22.83726783      9.18398002     10.57297404   
   147       C         23.45165483     13.82374325     14.28307555   
   148       C         21.86575991      9.50922832     11.53964990   
   149       C         21.48804912     10.61134496     13.75297604   
   150       C         18.99734312      8.38868793      9.44048439   
   151       C         21.33956413     13.04420895     15.40099758   
   152       C         22.65191153      8.39682866      9.42720215   
   153       C          7.82133625     16.60039831      8.29466489   
   154       C          9.25262874     21.41759135      7.93443367   
   155       C          8.44143604     23.73017726      8.42667800   
   156       C          9.53964894     18.00936331      9.35548280   
   157       C         15.48956967     20.52887131     12.00545670   
   158       C          8.79324883     16.86551948      9.24836795   
   159       C         14.71898540     20.64869713     10.87891787   
   160       C         11.11399927     20.63965187      9.33213176   
   161       C         14.51875204     23.06794562     15.18741056   
   162       C          9.95763491     20.35629738      8.60555980   
   163       C         15.26005824     21.91408061     15.43525053   
   164       C         12.95232821     23.74445924     10.18443276   
   165       C         12.72184084     22.37512674     10.08288788   
   166       C         10.50696749     22.90574993      9.27943126   
   167       C         14.60970445     22.55155681     12.90117491   
   168       C         11.49380474     21.94885723      9.58799345   
   169       C         14.25912943     23.48636005     13.89272522   
   170       C         13.72922034     21.59414044     10.65102507   
   171       C          9.36057671     22.70658771      8.49608842   
   172       C          9.43441455     19.05520894      8.46521554   
   173       C         15.39978361     21.40402347     13.06570333   
   174       C         21.43620554     17.73324502     14.47395422   
   175       C         20.67590430     18.86873388     14.57061943   
   176       C         17.09648291     20.50830526     14.62008269   
   177       C         15.94233225     21.24737395     14.35798454   
   178       C         19.70753841     19.13475957     15.52760734   
   179       C         21.34925208     16.69708732     15.37743232   
   180       C          7.40980098      6.79988900     15.98648738   
   181       C          3.42343836      0.02637406     20.16465700   
   182       C          2.44671751      5.77720397     21.16420521   
   183       C          3.16693398      6.93732926     21.06151777   
   184       C          0.84366040      3.18680974     21.10103125   
   185       C          3.45304966      2.64166654     18.56831242   
   186       C          2.69736627      2.37356996     19.71163257   
   187       C          2.01592536      3.44405202     20.38978862   
   188       C          4.82878525      7.73362108     17.93714409   
   189       C          6.06922287      7.17229164     15.92571755   
   190       C          4.28195201      5.70924555     16.63065231   
   191       C          4.16955283      4.34134125     16.91281664   
   192       C          3.92747326      6.69822510     17.58423635   
   193       C          1.37866339      0.90462065     21.01595826   
   194       C          3.41329815      4.90543188     19.16496596   
   195       C          0.42636473      1.88781600     21.34818093   
   196       C          3.72409785      3.94951511     18.17962832   
   197       C          4.44638522      3.44647995     15.89205968   
   198       C          4.12485023      7.22791996     20.10312547   
   199       C          2.53833641      1.07881321     20.24592147   
   200       C          2.57849258      4.73054902     20.27879383   
   201       C          5.07353079      7.86392035     19.30126367   
   202       C          8.22323118      7.77453896     16.56826386   
   203       C         21.07722795      3.27861907     22.72696334   
   204       C         22.71687074      0.13644052     21.94300162   
   205       C         22.99636910      1.49775131     21.86083262   
   206       C         22.03021691      2.30504026     22.46365122   
   207       C          6.69060804      8.64778686     21.01341130   
   208       C          7.85749346      9.35967218     21.28848225   
   209       C          5.67980086      8.14225235     16.88422888   
   210       C          7.21868427      8.78341807     18.73160307   
   211       C          6.27740654      8.42013209     19.71018057   
   212       C          8.31480248      8.55764376     23.61154161   
   213       C         12.04408945     15.53643837     20.44246533   
   214       C          9.31599313      9.53624507     17.89934445   
   215       C         10.90757704     14.77661319     20.52710986   
   216       C          9.20380817      8.72928936     16.79679935   
   217       C          9.30390105     11.18112458     20.50535365   
   218       C         15.15249112     14.54336465     23.06397047   
   219       C         15.43406037     15.28148121     21.91410441   
   220       C          8.54890795     10.04192240     20.22654558   
   221       C         10.10780993     13.04508967     23.61016102   
   222       C         10.04268410     12.79867790     22.24118557   
   223       C          9.20985421     10.60077630     22.77680745   
   224       C         12.88079929     14.64219595     22.48638337   
   225       C          9.54526652     11.57256986     21.81436858   
   226       C         13.84395225     14.30221341     23.45579661   
   227       C         10.64388408     13.79070427     21.46636432   
   228       C          8.40882552      9.46692986     22.58121572   
   229       C         13.07781921     15.43494109     21.34713358   
   230       C          8.39975646      9.51229895     18.92767086   
   231       C         17.76771220     14.50811196     21.46210353   
   232       C         18.90003522     14.60625297     20.69675599   
   233       C         20.48212162     14.61539344     17.09874422   
   234       C         21.21014559     14.33965600     15.94109448   
   235       C         19.15699186     15.55762330     19.71998753   
   236       C         16.73119745     15.41154245     21.37779223   
   237       C          3.30173208     22.69813754     20.92702912   
   238       C          0.17871518     21.96518629     22.62032455   
   239       C          1.54300138     21.87670942     22.88408893   
   240       C          2.34141170     22.45862872     21.89898931   
   241       C         14.50108999     21.44715505     17.76587934   
   242       C         14.61177534     20.69582766     18.90493870   
   243       C         14.65274082     17.13321140     20.50623437   
   244       C         14.37428980     15.97349078     21.22856934   
   245       C         15.57640411     19.73457896     19.16349016   
   246       C         15.39752230     21.36122514     16.72367561   
   247       C         19.00465073     19.66573981     17.68751887   
   248       C         17.73536351     19.01238680     19.66850099   
   249       C         19.68095012     17.70768027     18.98139491   
   250       C         16.37062505     18.75659653     19.76081019   
   251       C         19.74952743     16.34022823     18.72827060   
   252       C         18.73453087     19.74079162     16.32342310   
   253       C         22.94971463     21.65336305     23.53299071   
   254       C         20.00153298     18.72919893     18.05963588   
   255       C         23.61663551     22.89987051     21.61930053   
   256       C         18.10514779     20.00210426     18.72346234   
   257       C         21.71594193     23.57959758     22.87911404   
   258       C         18.76069070     18.09453152     19.98751283   
   259       C         16.92645593     16.56319375     20.60163800   
   260       C         20.56529036     16.88825163     16.52410873   
   261       C         16.54565072     20.57638270     16.90074837   
   262       C         15.95935161     17.53008384     20.26796333   
   263       C         20.24111320     15.92209945     17.49618794   
   264       C         17.50420965     20.25108679     15.92114732   
   265       B         15.62598638      5.53281548      4.72647866   
   266       B         19.05618488      3.69220143      6.31127864   
   267       B          4.81885927     15.60527751      5.54866848   
   268       B         13.05937165     12.31694669      2.24703161   
   269       B          9.65730866     10.73705020      0.35569273   
   270       B          6.37045364     19.05863662      3.72619254   
   271       B          8.21404311     17.48207258      7.15915222   
   272       B         23.40162030     21.52315899      1.12111167   
   273       B         10.63053042      0.47487585      9.76161472   
   274       B         12.19047975      2.24217574     13.22620899   
   275       B         17.44186881      7.08983701      8.18002819   
   276       B          2.26388435     13.05691991     12.31758938   
   277       B          0.41232078      9.64055113     10.72460107   
   278       B         22.63234521     11.47766610     14.15446632   
   279       B         14.11830910     22.72736799     11.53769803   
   280       B          5.29954313      4.74209363     15.88610886   
   281       B          3.79384152      6.29792499     18.98763137   
   282       B         21.61234996      1.16945618     23.33347144   
   283       B          7.06389141      8.26145928     17.37817117   
   284       B         11.50270718     14.18241139     22.61994369   
   285       B          1.20944572     23.33785125     21.48978677   
   286       B         18.29883525     16.70687048     20.12521493   
   287       B         20.11352751     18.26822421     16.67004677   
   288       B         16.71060760     20.12795231     18.27964979   
   289       H         13.61679735      6.15898512      1.68389312   
   290       H          8.91485990      7.87553637      1.70503045   
   291       H         14.91391063      4.17457532      1.86182279   
   292       H         12.04125686      7.83787954      2.22775094   
   293       H         22.10738721      1.69489024      5.70029551   
   294       H         19.65836079      4.25522091      0.14753286   
   295       H         21.89610911      2.95068100      7.70798493   
   296       H         21.56026834      0.13463147      4.00504821   
   297       H         18.06089745      3.71852788      1.82473725   
   298       H         23.59844979      7.64328756      7.67080417   
   299       H          1.77689262     13.57726007      6.14805940   
   300       H          1.97945871     14.85042723      4.15048638   
   301       H          1.79422142      8.91355072      7.87115656   
   302       H          2.30525449     12.02278550      7.84297345   
   303       H         15.54983962      9.99345888      5.81907398   
   304       H         16.09188839     11.69808467      4.27654866   
   305       H         15.89848657     13.70463153      3.01571161   
   306       H          5.74076112     22.08962995      1.70450678   
   307       H          0.19532989     19.52756165      4.18235900   
   308       H          7.72290960     21.92424462      3.00740426   
   309       H          1.90788218     17.97015927      3.66723177   
   310       H          4.07552979     21.51030521      0.11646955   
   311       H          7.58580259     23.63113172      7.75937626   
   312       H          8.15662955     21.96649548      6.16379338   
   313       H         22.00146252     20.80144291      3.96721683   
   314       H          6.09488283      1.72450155     13.52370264   
   315       H          3.95170502      1.83052145     14.60294431   
   316       H          7.75178300      1.81212150      9.05863184   
   317       H          7.72971734      2.42115276     12.09388596   
   318       H         21.91955537      6.07417396      8.21230547   
   319       H          5.83687885     15.57504732     10.02604559   
   320       H         18.03861756     10.13349370     10.20618898   
   321       H         16.04161582      9.92778557      8.93245054   
   322       H         19.78304248     10.09797917     14.89089284   
   323       H         19.73883975      9.60675045     11.76271063   
   324       H          4.26866977     16.11031215     11.70789163   
   325       H          2.99190831     15.90924567     13.70325094   
   326       H         10.20987849     18.10371959     10.20940242   
   327       H         14.88346621     19.91715028     10.08569667   
   328       H          8.96541811     16.08843692      9.99614865   
   329       H         11.75185633     19.82436501      9.67151923   
   330       H         16.16605948     19.67768907     12.07348653   
   331       H         22.10338826     17.63691306     13.61763047   
   332       H         20.83348215     19.63743769     13.81143695   
   333       H         23.67216861     15.95054439     14.16770095   
   334       H         17.71408336     20.16080086     13.79287037   
   335       H          1.77101320      5.67277889     22.01248345   
   336       H          4.28492743      0.10525820     19.50259199   
   337       H          2.98043512      7.70629490     21.81370209   
   338       H          0.22222762      4.01549786     21.43849065   
   339       H          3.80076828      1.81438282     17.95023591   
   340       H          7.63914578      7.70888946     23.51052040   
   341       H          9.84149860      5.62153038     15.93162077   
   342       H         11.50849138      4.04613271     16.40014114   
   343       H         13.55859828      2.87555778     16.12414187   
   344       H         20.93797864      4.04149107     21.95844996   
   345       H          6.07426917      8.28780954     21.83583916   
   346       H         10.19209742     10.17933885     17.98091836   
   347       H          9.97091715      8.83283372     16.02707201   
   348       H         10.13720701     14.94828260     19.77204535   
   349       H          9.67475648     11.79693978     19.68582980   
   350       H         19.58671285     12.09745645     16.16303646   
   351       H         17.67476030     13.65188342     22.12957189   
   352       H         19.67290460     13.85076000     20.85457188   
   353       H         20.13076110     13.79577437     17.72443779   
   354       H         15.96958703     14.18264942     23.68771217   
   355       H          4.04365717     21.91203352     20.77164117   
   356       H         12.14204004     16.21490385     19.59552007   
   357       H         13.63814891     22.10560197     17.67302266   
   358       H         13.85897214     20.85262000     19.68006940   
   359       H         13.83419290     17.76019035     20.15504047   
   360       H         14.17091440     23.67583432     16.02124020   
   361      Tv         23.80330100      0.00000000      0.00000000   
   362      Tv          0.00000000     23.80330100      0.00000000   
   363      Tv          0.00000000      0.00000000     23.80330100   


                   THE SYSTEM IS A SOLID


                UNIT CELL TRANSLATION VECTORS

              X                Y              Z
    T1 =    23.8033010      0.0000000      0.0000000
    T2 =     0.0000000     23.8033010      0.0000000
    T3 =     0.0000000      0.0000000     23.8033010


          CARTESIAN COORDINATES 

    NO.       ATOM           X           Y           Z

     1         C         14.2880      6.0666      2.5372
     2         C         15.0642      4.9412      2.6245
     3         C         15.7497      5.0620      6.1119
     4         C         15.1494      6.9060      4.5933
     5         C         15.4693      7.8681      5.5707
     6         C         14.3641      7.0978      3.4472
     7         C         15.9769      7.4482      6.7958
     8         C         20.3121      3.3883      0.0549
     9         C         21.2529      2.3649      5.7919
    10         C         21.1466      3.1170      6.9317
    11         C         21.2182      0.7609      3.1820
    12         C         18.6721      3.3546      2.6497
    13         C         19.8262      2.6170      2.3826
    14         C         20.4970      1.9239      3.4513
    15         C         16.7560      4.1404      5.7282
    16         C         18.0279      4.7932      7.7077
    17         C         16.0633      6.0803      7.0397
    18         C         17.0243      4.0828      4.3627
    19         C         17.6622      3.8054      6.7589
    20         C         21.1508      1.3280      0.9064
    21         C         19.2176      3.2532      4.9291
    22         C         21.4630      0.3575      1.8780
    23         C         18.2591      3.5893      3.9533
    24         C         16.0411      4.6829      3.5750
    25         C         20.1903      4.0869      7.1940
    26         C         20.3786      2.4841      1.0920
    27         C         20.3615      2.4631      4.7464
    28         C         19.3916      5.0587      7.7980
    29         C          2.6287     14.2514      6.0604
    30         C          2.7286     15.0149      4.9276
    31         C          6.2101     15.7504      5.1005
    32         C          4.6671     15.1349      6.9223
    33         C          5.6242     15.4734      7.8986
    34         C          3.5230     14.3444      7.1042
    35         C         15.2430     11.7917      3.5996
    36         C         15.1480     12.9302      2.8440
    37         C          9.0770      8.6402      0.9435
    38         C         12.6563      8.6605      2.5907
    39         C         15.2103      9.1748      5.1851
    40         C         14.4819      9.4518      4.0277
    41         C         13.8093      8.3882      3.3283
    42         C         12.0540     13.7122      1.1223
    43         C         10.7634     11.7418      1.7648
    44         C         11.0259     10.3760      1.8345
    45         C         13.4221     13.7929      0.8758
    46         C         11.0347     14.0425      0.2015
    47         C         11.6694     12.7696      2.1084
    48         C          9.7742     12.1237      0.8244
    49         C         13.2078     10.9379      2.7012
    50         C         12.2507      9.9654      2.3514
    51         C         14.2039     13.1905      1.8618
    52         C         10.0523      9.5881      1.2182
    53         C         14.3483     10.7496      3.4949
    54         C         16.5682      8.2316      7.7873
    55         C          6.8502     15.9935      7.4972
    56         C          5.8345     21.2399      2.3803
    57         C          0.1093     20.1944      3.3247
    58         C          6.9588     21.1591      3.1588
    59         C          2.7272     18.5981      3.3187
    60         C          3.2499     21.1551      0.7321
    61         C          3.5171     20.4379      1.8986
    62         C          2.4514     19.7472      2.5771
    63         C          7.1146     16.0828      6.1332
    64         C          5.8257     16.7469      4.1689
    65         C          7.7649     18.0610      4.8575
    66         C          4.4574     16.9887      4.0838
    67         C          6.8433     17.6744      3.8522
    68         C          4.9962     19.1891      3.2543
    69         C          0.9706     21.0518      1.2755
    70         C          4.0343     18.2127      3.5770
    71         C          1.9467     21.3832      0.3163
    72         C          7.2190     20.2120      4.1386
    73         C          3.6759     15.9963      4.6757
    74         C          4.8054     20.3280      2.4594
    75         C          1.1543     20.2791      2.4312
    76         C          7.8200     19.4271      5.1238
    77         C          8.5258     21.1445      6.7760
    78         C          8.1010     17.0324      5.7658
    79         C          8.6507     18.8656      7.3180
    80         C          8.3074     19.8361      6.3598
    81         C         22.7811     20.9590      3.2162
    82         C         22.0284     22.6633      0.1043
    83         C         21.9505     22.9241      1.4696
    84         C         22.5343     21.9345      2.2614
    85         C          5.9228      2.5275     14.2381
    86         C          4.7188      2.5545     14.8797
    87         C          5.0775      6.2265     15.5741
    88         C          6.7099      4.5212     15.3956
    89         C          7.7207      5.4810     15.6745
    90         C          6.9294      3.4331     14.5083
    91         C         11.6278      3.4386     15.5039
    92         C          8.5221      1.0521      9.2043
    93         C         12.7913      2.7326     15.3609
    94         C          9.0260      5.0340     15.5127
    95         C          8.5337      2.6700     12.7848
    96         C          8.2402      3.3156     13.9887
    97         C          9.3044      3.9150     14.7397
    98         C         13.6113      1.2019     12.1666
    99         C         11.6213      1.8571     10.9104
   100         C         13.7118      0.9045     13.5211
   101         C         10.2550      1.9126     11.1703
   102         C         12.6438      2.1811     11.8291
   103         C         12.0127      0.9540      9.8907
   104         C         13.9505      0.3216     11.1152
   105         C         10.7990      2.6495     13.4091
   106         C          9.8394      2.3912     12.4095
   107         C          9.4736      1.3180     10.1782
   108         C         13.0832      1.8333     14.3482
   109         C         10.5955      3.3729     14.5946
   110         C         21.0942      6.6921      8.5638
   111         C         21.3602      7.8482      9.2974
   112         C         16.9944      5.6980      8.0376
   113         C         18.8153      7.2435      8.6512
   114         C         19.7920      6.2860      8.3149
   115         C          3.6007     15.2542     11.7982
   116         C          2.8356     15.1543     12.9300
   117         C          1.0225      9.0713      8.6273
   118         C          2.6531     12.6453      8.6665
   119         C          5.2193     15.2225      9.2009
   120         C          4.0647     14.4862      9.4669
   121         C          3.3868     13.8012      8.3978
   122         C          1.8051     10.7561     11.7422
   123         C          1.1350     12.0448     13.7045
   124         C          0.8782     13.4109     13.7821
   125         C          1.8867     11.0175     10.3772
   126         C          0.8669      9.7615     12.1158
   127         C          0.2185     11.0195     14.0279
   128         C          2.1328     11.6663     12.7717
   129         C          2.7302     13.2078     10.9427
   130         C          2.3998     12.2446      9.9699
   131         C          1.8625     14.1996     13.1861
   132         C          1.2840     10.0408      9.5840
   133         C          3.5164     14.3544     10.7586
   134         C         17.9523      9.2815      9.5323
   135         C         20.4399     12.0050     15.4915
   136         C         23.6912      8.3105      8.5272
   137         C         16.8197      9.1796      8.7684
   138         C         20.5371     10.8709     14.7291
   139         C         23.0505     15.1294     14.5226
   140         C         20.5615      9.2585     11.1393
   141         C         20.2913      8.5258      9.9830
   142         C         21.8936     15.4031     15.2523
   143         C         23.6428     10.0885     13.0286
   144         C         22.2767     10.0128     12.7696
   145         C         22.4856     12.8545     14.6155
   146         C         22.8373      9.1840     10.5730
   147         C         23.4517     13.8237     14.2831
   148         C         21.8658      9.5092     11.5396
   149         C         21.4880     10.6113     13.7530
   150         C         18.9973      8.3887      9.4405
   151         C         21.3396     13.0442     15.4010
   152         C         22.6519      8.3968      9.4272
   153         C          7.8213     16.6004      8.2947
   154         C          9.2526     21.4176      7.9344
   155         C          8.4414     23.7302      8.4267
   156         C          9.5396     18.0094      9.3555
   157         C         15.4896     20.5289     12.0055
   158         C          8.7932     16.8655      9.2484
   159         C         14.7190     20.6487     10.8789
   160         C         11.1140     20.6397      9.3321
   161         C         14.5188     23.0679     15.1874
   162         C          9.9576     20.3563      8.6056
   163         C         15.2601     21.9141     15.4353
   164         C         12.9523     23.7445     10.1844
   165         C         12.7218     22.3751     10.0829
   166         C         10.5070     22.9057      9.2794
   167         C         14.6097     22.5516     12.9012
   168         C         11.4938     21.9489      9.5880
   169         C         14.2591     23.4864     13.8927
   170         C         13.7292     21.5941     10.6510
   171         C          9.3606     22.7066      8.4961
   172         C          9.4344     19.0552      8.4652
   173         C         15.3998     21.4040     13.0657
   174         C         21.4362     17.7332     14.4740
   175         C         20.6759     18.8687     14.5706
   176         C         17.0965     20.5083     14.6201
   177         C         15.9423     21.2474     14.3580
   178         C         19.7075     19.1348     15.5276
   179         C         21.3493     16.6971     15.3774
   180         C          7.4098      6.7999     15.9865
   181         C          3.4234      0.0264     20.1647
   182         C          2.4467      5.7772     21.1642
   183         C          3.1669      6.9373     21.0615
   184         C          0.8437      3.1868     21.1010
   185         C          3.4530      2.6417     18.5683
   186         C          2.6974      2.3736     19.7116
   187         C          2.0159      3.4441     20.3898
   188         C          4.8288      7.7336     17.9371
   189         C          6.0692      7.1723     15.9257
   190         C          4.2820      5.7092     16.6307
   191         C          4.1696      4.3413     16.9128
   192         C          3.9275      6.6982     17.5842
   193         C          1.3787      0.9046     21.0160
   194         C          3.4133      4.9054     19.1650
   195         C          0.4264      1.8878     21.3482
   196         C          3.7241      3.9495     18.1796
   197         C          4.4464      3.4465     15.8921
   198         C          4.1249      7.2279     20.1031
   199         C          2.5383      1.0788     20.2459
   200         C          2.5785      4.7305     20.2788
   201         C          5.0735      7.8639     19.3013
   202         C          8.2232      7.7745     16.5683
   203         C         21.0772      3.2786     22.7270
   204         C         22.7169      0.1364     21.9430
   205         C         22.9964      1.4978     21.8608
   206         C         22.0302      2.3050     22.4637
   207         C          6.6906      8.6478     21.0134
   208         C          7.8575      9.3597     21.2885
   209         C          5.6798      8.1423     16.8842
   210         C          7.2187      8.7834     18.7316
   211         C          6.2774      8.4201     19.7102
   212         C          8.3148      8.5576     23.6115
   213         C         12.0441     15.5364     20.4425
   214         C          9.3160      9.5362     17.8993
   215         C         10.9076     14.7766     20.5271
   216         C          9.2038      8.7293     16.7968
   217         C          9.3039     11.1811     20.5054
   218         C         15.1525     14.5434     23.0640
   219         C         15.4341     15.2815     21.9141
   220         C          8.5489     10.0419     20.2265
   221         C         10.1078     13.0451     23.6102
   222         C         10.0427     12.7987     22.2412
   223         C          9.2099     10.6008     22.7768
   224         C         12.8808     14.6422     22.4864
   225         C          9.5453     11.5726     21.8144
   226         C         13.8440     14.3022     23.4558
   227         C         10.6439     13.7907     21.4664
   228         C          8.4088      9.4669     22.5812
   229         C         13.0778     15.4349     21.3471
   230         C          8.3998      9.5123     18.9277
   231         C         17.7677     14.5081     21.4621
   232         C         18.9000     14.6063     20.6968
   233         C         20.4821     14.6154     17.0987
   234         C         21.2101     14.3397     15.9411
   235         C         19.1570     15.5576     19.7200
   236         C         16.7312     15.4115     21.3778
   237         C          3.3017     22.6981     20.9270
   238         C          0.1787     21.9652     22.6203
   239         C          1.5430     21.8767     22.8841
   240         C          2.3414     22.4586     21.8990
   241         C         14.5011     21.4472     17.7659
   242         C         14.6118     20.6958     18.9049
   243         C         14.6527     17.1332     20.5062
   244         C         14.3743     15.9735     21.2286
   245         C         15.5764     19.7346     19.1635
   246         C         15.3975     21.3612     16.7237
   247         C         19.0047     19.6657     17.6875
   248         C         17.7354     19.0124     19.6685
   249         C         19.6810     17.7077     18.9814
   250         C         16.3706     18.7566     19.7608
   251         C         19.7495     16.3402     18.7283
   252         C         18.7345     19.7408     16.3234
   253         C         22.9497     21.6534     23.5330
   254         C         20.0015     18.7292     18.0596
   255         C         23.6166     22.8999     21.6193
   256         C         18.1051     20.0021     18.7235
   257         C         21.7159     23.5796     22.8791
   258         C         18.7607     18.0945     19.9875
   259         C         16.9265     16.5632     20.6016
   260         C         20.5653     16.8883     16.5241
   261         C         16.5457     20.5764     16.9007
   262         C         15.9594     17.5301     20.2680
   263         C         20.2411     15.9221     17.4962
   264         C         17.5042     20.2511     15.9211
   265         B         15.6260      5.5328      4.7265
   266         B         19.0562      3.6922      6.3113
   267         B          4.8189     15.6053      5.5487
   268         B         13.0594     12.3169      2.2470
   269         B          9.6573     10.7371      0.3557
   270         B          6.3705     19.0586      3.7262
   271         B          8.2140     17.4821      7.1592
   272         B         23.4016     21.5232      1.1211
   273         B         10.6305      0.4749      9.7616
   274         B         12.1905      2.2422     13.2262
   275         B         17.4419      7.0898      8.1800
   276         B          2.2639     13.0569     12.3176
   277         B          0.4123      9.6406     10.7246
   278         B         22.6323     11.4777     14.1545
   279         B         14.1183     22.7274     11.5377
   280         B          5.2995      4.7421     15.8861
   281         B          3.7938      6.2979     18.9876
   282         B         21.6123      1.1695     23.3335
   283         B          7.0639      8.2615     17.3782
   284         B         11.5027     14.1824     22.6199
   285         B          1.2094     23.3379     21.4898
   286         B         18.2988     16.7069     20.1252
   287         B         20.1135     18.2682     16.6700
   288         B         16.7106     20.1280     18.2796
   289         H         13.6168      6.1590      1.6839
   290         H          8.9149      7.8755      1.7050
   291         H         14.9139      4.1746      1.8618
   292         H         12.0413      7.8379      2.2278
   293         H         22.1074      1.6949      5.7003
   294         H         19.6584      4.2552      0.1475
   295         H         21.8961      2.9507      7.7080
   296         H         21.5603      0.1346      4.0050
   297         H         18.0609      3.7185      1.8247
   298         H         23.5984      7.6433      7.6708
   299         H          1.7769     13.5773      6.1481
   300         H          1.9795     14.8504      4.1505
   301         H          1.7942      8.9136      7.8712
   302         H          2.3053     12.0228      7.8430
   303         H         15.5498      9.9935      5.8191
   304         H         16.0919     11.6981      4.2765
   305         H         15.8985     13.7046      3.0157
   306         H          5.7408     22.0896      1.7045
   307         H          0.1953     19.5276      4.1824
   308         H          7.7229     21.9242      3.0074
   309         H          1.9079     17.9702      3.6672
   310         H          4.0755     21.5103      0.1165
   311         H          7.5858     23.6311      7.7594
   312         H          8.1566     21.9665      6.1638
   313         H         22.0015     20.8014      3.9672
   314         H          6.0949      1.7245     13.5237
   315         H          3.9517      1.8305     14.6029
   316         H          7.7518      1.8121      9.0586
   317         H          7.7297      2.4212     12.0939
   318         H         21.9196      6.0742      8.2123
   319         H          5.8369     15.5750     10.0260
   320         H         18.0386     10.1335     10.2062
   321         H         16.0416      9.9278      8.9325
   322         H         19.7830     10.0980     14.8909
   323         H         19.7388      9.6068     11.7627
   324         H          4.2687     16.1103     11.7079
   325         H          2.9919     15.9092     13.7033
   326         H         10.2099     18.1037     10.2094
   327         H         14.8835     19.9172     10.0857
   328         H          8.9654     16.0884      9.9961
   329         H         11.7519     19.8244      9.6715
   330         H         16.1661     19.6777     12.0735
   331         H         22.1034     17.6369     13.6176
   332         H         20.8335     19.6374     13.8114
   333         H         23.6722     15.9505     14.1677
   334         H         17.7141     20.1608     13.7929
   335         H          1.7710      5.6728     22.0125
   336         H          4.2849      0.1053     19.5026
   337         H          2.9804      7.7063     21.8137
   338         H          0.2222      4.0155     21.4385
   339         H          3.8008      1.8144     17.9502
   340         H          7.6391      7.7089     23.5105
   341         H          9.8415      5.6215     15.9316
   342         H         11.5085      4.0461     16.4001
   343         H         13.5586      2.8756     16.1241
   344         H         20.9380      4.0415     21.9584
   345         H          6.0743      8.2878     21.8358
   346         H         10.1921     10.1793     17.9809
   347         H          9.9709      8.8328     16.0271
   348         H         10.1372     14.9483     19.7720
   349         H          9.6748     11.7969     19.6858
   350         H         19.5867     12.0975     16.1630
   351         H         17.6748     13.6519     22.1296
   352         H         19.6729     13.8508     20.8546
   353         H         20.1308     13.7958     17.7244
   354         H         15.9696     14.1826     23.6877
   355         H          4.0437     21.9120     20.7716
   356         H         12.1420     16.2149     19.5955
   357         H         13.6381     22.1056     17.6730
   358         H         13.8590     20.8526     19.6801
   359         H         13.8342     17.7602     20.1550
   360         H         14.1709     23.6758     16.0212

 General Reference for PM7:
 "Optimization of Parameters for Semiempirical Methods VI: More Modifications to the 
 NDDO Approximations and Re-optimization of Parameters", J. J. P. Stewart, J. Mol. Mod., 1:32, 19 (2013)
 https://link.springer.com/article/10.1007/s00894-012-1667-x

           Empirical Formula: C264 H72 B24  =   360 atoms



      RHF CALCULATION, NO. OF DOUBLY OCCUPIED LEVELS = 600


 -------------------------------------------------------------------------------
 PM7 CHARGE=0 NOOPT




     NO PARAMETERS MARKED FOR OPTIMIZATION, SO 1SCF WAS USED  
     SCF FIELD WAS ACHIEVED                                   


                              PM7 CALCULATION
                                                       MOPAC v22.1.0 Linux
                                                       Thu Feb  1 11:35:04 2024




          FINAL HEAT OF FORMATION =       3631.53923 KCAL/MOL =   15194.36016 KJ/MOL
          H.o.F. per unit cell    =        151.31413 KCAL, for 24 unit cells, unit cell = C11 H3 B1



          IONIZATION POTENTIAL    =          7.772045 EV
          HOMO LUMO ENERGIES (EV) =         -7.772 -3.620
          NO. OF FILLED LEVELS    =        600
          MOLECULAR WEIGHT        =       3502.9128

                   THE SYSTEM IS A SOLID


                UNIT CELL TRANSLATION VECTORS

              X                Y              Z
    T1 =    23.8033010      0.0000000      0.0000000
    T2 =     0.0000000     23.8033010      0.0000000
    T3 =     0.0000000      0.0000000     23.8033010

          VOLUME OF UNIT CELL     =      13486.882 CUBIC ANGSTROMS

          DENSITY                 =          0.431 GRAMS/CC
                              A   =         23.803 ANGSTROMS
                              B   =         23.803 ANGSTROMS
                              C   =         23.803 ANGSTROMS
                            ALPHA =         90.000 DEGREES
                            BETA  =         90.000 DEGREES
                            GAMMA =         90.000 DEGREES



          SCF CALCULATIONS        =          1

          WALL-CLOCK TIME         =          1 MINUTE AND 52.926 SECONDS
          COMPUTATION TIME        =          1 MINUTE AND 52.917 SECONDS




   ATOM   CHEMICAL          X               Y               Z
  NUMBER   SYMBOL      (ANGSTROMS)     (ANGSTROMS)     (ANGSTROMS)

     1       C         14.28795523      6.06655690      2.53717005   
     2       C         15.06420468      4.94118443      2.62445676   
     3       C         15.74969214      5.06198619      6.11185458   
     4       C         15.14937289      6.90595651      4.59327539   
     5       C         15.46933686      7.86808593      5.57071034   
     6       C         14.36410199      7.09778731      3.44724166   
     7       C         15.97689465      7.44817190      6.79579483   
     8       C         20.31214225      3.38825708      0.05493802   
     9       C         21.25292012      2.36485795      5.79186681   
    10       C         21.14656697      3.11701846      6.93173548   
    11       C         21.21819110      0.76092012      3.18197767   
    12       C         18.67214242      3.35462301      2.64971206   
    13       C         19.82617406      2.61695872      2.38259141   
    14       C         20.49704629      1.92394941      3.45128822   
    15       C         16.75602430      4.14039378      5.72816917   
    16       C         18.02785847      4.79319931      7.70772309   
    17       C         16.06330063      6.08029140      7.03970725   
    18       C         17.02428750      4.08276599      4.36266901   
    19       C         17.66223977      3.80540993      6.75887591   
    20       C         21.15080396      1.32798616      0.90635829   
    21       C         19.21764267      3.25317334      4.92906855   
    22       C         21.46298425      0.35750178      1.87800904   
    23       C         18.25910754      3.58925215      3.95334744   
    24       C         16.04111595      4.68291862      3.57501778   
    25       C         20.19031696      4.08688396      7.19402405   
    26       C         20.37857727      2.48413630      1.09204784   
    27       C         20.36151030      2.46314178      4.74637822   
    28       C         19.39159719      5.05865373      7.79800901   
    29       C          2.62866994     14.25139336      6.06043945   
    30       C          2.72859620     15.01490804      4.92761655   
    31       C          6.21006700     15.75035863      5.10045232   
    32       C          4.66713703     15.13492428      6.92226177   
    33       C          5.62422016     15.47338342      7.89855416   
    34       C          3.52295996     14.34436905      7.10419040   
    35       C         15.24303888     11.79167925      3.59960659   
    36       C         15.14801610     12.93016733      2.84397080   
    37       C          9.07703179      8.64016980      0.94349144   
    38       C         12.65633416      8.66047402      2.59067987   
    39       C         15.21033314      9.17479194      5.18507306   
    40       C         14.48185692      9.45176715      4.02773276   
    41       C         13.80931845      8.38816426      3.32827276   
    42       C         12.05399163     13.71215338      1.12225423   
    43       C         10.76335284     11.74181133      1.76482434   
    44       C         11.02587945     10.37600173      1.83452041   
    45       C         13.42206255     13.79289417      0.87584246   
    46       C         11.03466287     14.04249559      0.20151875   
    47       C         11.66935409     12.76959026      2.10837739   
    48       C          9.77418287     12.12366389      0.82435592   
    49       C         13.20776143     10.93792625      2.70117479   
    50       C         12.25072591      9.96539478      2.35140909   
    51       C         14.20390577     13.19052784      1.86182279   
    52       C         10.05230064      9.58806486      1.21820534   
    53       C         14.34827279     10.74961834      3.49489587   
    54       C         16.56819245      8.23160995      7.78732133   
    55       C          6.85016157     15.99348555      7.49718290   
    56       C          5.83454612     21.23994732      2.38025869   
    57       C          0.10925715     20.19436352      3.32474987   
    58       C          6.95884744     21.15913511      3.15881706   
    59       C          2.72721561     18.59811415      3.31868003   
    60       C          3.24986469     21.15511235      0.73214193   
    61       C          3.51705674     20.43787129      1.89855129   
    62       C          2.45143056     19.74724231      2.57713579   
    63       C          7.11461624     16.08277173      6.13318234   
    64       C          5.82571510     16.74688383      4.16888633   
    65       C          7.76485102     18.06101647      4.85751583   
    66       C          4.45735854     16.98870156      4.08376573   
    67       C          6.84325861     17.67437945      3.85215961   
    68       C          4.99619386     19.18905490      3.25433971   
    69       C          0.97060340     21.05175842      1.27552369   
    70       C          4.03425486     18.21266730      3.57701725   
    71       C          1.94665776     21.38324319      0.31634587   
    72       C          7.21901752     20.21200176      4.13860853   
    73       C          3.67589617     15.99627053      4.67570622   
    74       C          4.80538660     20.32799525      2.45942847   
    75       C          1.15434108     20.27912707      2.43124536   
    76       C          7.82000326     19.42713552      5.12375575   
    77       C          8.52579494     21.14454369      6.77596668   
    78       C          8.10104884     17.03238062      5.76580219   
    79       C          8.65066706     18.86563945      7.31801545   
    80       C          8.30735205     19.83608417      6.35981357   
    81       C         22.78109204     20.95897315      3.21615921   
    82       C         22.02840786     22.66331331      0.10428226   
    83       C         21.95047585     22.92412608      1.46959200   
    84       C         22.53432322     21.93452764      2.26136120   
    85       C          5.92283257      2.52750591     14.23811112   
    86       C          4.71883780      2.55452266     14.87972909   
    87       C          5.07748214      6.22651508     15.57411899   
    88       C          6.70986491      4.52115139     15.39561804   
    89       C          7.72067209      5.48099569     15.67452132   
    90       C          6.92937895      3.43312630     14.50834999   
    91       C         11.62779352      3.43857726     15.50385165   
    92       C          8.52208163      1.05205830      9.20428423   
    93       C         12.79127507      2.73257135     15.36091282   
    94       C          9.02599751      5.03396970     15.51273028   
    95       C          8.53369764      2.67004008     12.78475297   
    96       C          8.24020294      3.31556180     13.98870013   
    97       C          9.30437711      3.91504793     14.73971808   
    98       C         13.61132259      1.20185247     12.16662885   
    99       C         11.62131902      1.85708594     10.91040964   
   100       C         13.71182013      0.90452544     13.52113189   
   101       C         10.25503335      1.91259524     11.17031788   
   102       C         12.64381362      2.18107267     11.82912184   
   103       C         12.01269290      0.95398870      9.89070002   
   104       C         13.95051963      0.32160640     11.11521324   
   105       C         10.79898638      2.64945022     13.40908975   
   106       C          9.83940391      2.39118441     12.40951773   
   107       C          9.47357098      1.31798878     10.17817249   
   108       C         13.08319876      1.83325883     14.34822519   
   109       C         10.59549196      3.37288015     14.59461316   
   110       C         21.09424731      6.69206004      8.56383262   
   111       C         21.36015399      7.84816257      9.29740275   
   112       C         16.99439055      5.69798659      8.03756544   
   113       C         18.81531928      7.24346351      8.65121454   
   114       C         19.79199252      6.28602333      8.31494530   
   115       C          3.60065393     15.25420263     11.79817755   
   116       C          2.83563964     15.15432398     12.93000071   
   117       C          1.02249460      9.07127139      8.62731602   
   118       C          2.65309213     12.64528943      8.66649625   
   119       C          5.21925460     15.22249663      9.20088036   
   120       C          4.06472309     14.48618912      9.46685845   
   121       C          3.38680508     13.80117772      8.39778079   
   122       C          1.80507572     10.75614044     11.74219219   
   123       C          1.13498900     12.04480355     13.70448871   
   124       C          0.87819899     13.41092260     13.78213508   
   125       C          1.88672105     11.01747688     10.37721569   
   126       C          0.86691622      9.76149571     12.11583260   
   127       C          0.21853811     11.01952397     14.02788036   
   128       C          2.13279957     11.66625966     12.77170876   
   129       C          2.73019102     13.20780904     10.94268691   
   130       C          2.39975359     12.24458466      9.96986980   
   131       C          1.86253689     14.19964498     13.18605282   
   132       C          1.28395006     10.04082744      9.58404210   
   133       C          3.51643785     14.35436644     10.75859218   
   134       C         17.95225919      9.28152595      9.53234133   
   135       C         20.43989457     12.00502824     15.49154534   
   136       C         23.69116365      8.31051789      8.52722314   
   137       C         16.81972193      9.17955260      8.76837438   
   138       C         20.53710725     10.87094376     14.72914941   
   139       C         23.05045020     15.12942572     14.52258437   
   140       C         20.56152944      9.25848435     11.13932598   
   141       C         20.29131436      8.52581875      9.98303303   
   142       C         21.89358596     15.40311608     15.25232217   
   143       C         23.64281914     10.08848165     13.02857018   
   144       C         22.27674770     10.01276335     12.76959026   
   145       C         22.48559786     12.85454425     14.61548865   
   146       C         22.83726783      9.18398002     10.57297404   
   147       C         23.45165483     13.82374325     14.28307555   
   148       C         21.86575991      9.50922832     11.53964990   
   149       C         21.48804912     10.61134496     13.75297604   
   150       C         18.99734312      8.38868793      9.44048439   
   151       C         21.33956413     13.04420895     15.40099758   
   152       C         22.65191153      8.39682866      9.42720215   
   153       C          7.82133625     16.60039831      8.29466489   
   154       C          9.25262874     21.41759135      7.93443367   
   155       C          8.44143604     23.73017726      8.42667800   
   156       C          9.53964894     18.00936331      9.35548280   
   157       C         15.48956967     20.52887131     12.00545670   
   158       C          8.79324883     16.86551948      9.24836795   
   159       C         14.71898540     20.64869713     10.87891787   
   160       C         11.11399927     20.63965187      9.33213176   
   161       C         14.51875204     23.06794562     15.18741056   
   162       C          9.95763491     20.35629738      8.60555980   
   163       C         15.26005824     21.91408061     15.43525053   
   164       C         12.95232821     23.74445924     10.18443276   
   165       C         12.72184084     22.37512674     10.08288788   
   166       C         10.50696749     22.90574993      9.27943126   
   167       C         14.60970445     22.55155681     12.90117491   
   168       C         11.49380474     21.94885723      9.58799345   
   169       C         14.25912943     23.48636005     13.89272522   
   170       C         13.72922034     21.59414044     10.65102507   
   171       C          9.36057671     22.70658771      8.49608842   
   172       C          9.43441455     19.05520894      8.46521554   
   173       C         15.39978361     21.40402347     13.06570333   
   174       C         21.43620554     17.73324502     14.47395422   
   175       C         20.67590430     18.86873388     14.57061943   
   176       C         17.09648291     20.50830526     14.62008269   
   177       C         15.94233225     21.24737395     14.35798454   
   178       C         19.70753841     19.13475957     15.52760734   
   179       C         21.34925208     16.69708732     15.37743232   
   180       C          7.40980098      6.79988900     15.98648738   
   181       C          3.42343836      0.02637406     20.16465700   
   182       C          2.44671751      5.77720397     21.16420521   
   183       C          3.16693398      6.93732926     21.06151777   
   184       C          0.84366040      3.18680974     21.10103125   
   185       C          3.45304966      2.64166654     18.56831242   
   186       C          2.69736627      2.37356996     19.71163257   
   187       C          2.01592536      3.44405202     20.38978862   
   188       C          4.82878525      7.73362108     17.93714409   
   189       C          6.06922287      7.17229164     15.92571755   
   190       C          4.28195201      5.70924555     16.63065231   
   191       C          4.16955283      4.34134125     16.91281664   
   192       C          3.92747326      6.69822510     17.58423635   
   193       C          1.37866339      0.90462065     21.01595826   
   194       C          3.41329815      4.90543188     19.16496596   
   195       C          0.42636473      1.88781600     21.34818093   
   196       C          3.72409785      3.94951511     18.17962832   
   197       C          4.44638522      3.44647995     15.89205968   
   198       C          4.12485023      7.22791996     20.10312547   
   199       C          2.53833641      1.07881321     20.24592147   
   200       C          2.57849258      4.73054902     20.27879383   
   201       C          5.07353079      7.86392035     19.30126367   
   202       C          8.22323118      7.77453896     16.56826386   
   203       C         21.07722795      3.27861907     22.72696334   
   204       C         22.71687074      0.13644052     21.94300162   
   205       C         22.99636910      1.49775131     21.86083262   
   206       C         22.03021691      2.30504026     22.46365122   
   207       C          6.69060804      8.64778686     21.01341130   
   208       C          7.85749346      9.35967218     21.28848225   
   209       C          5.67980086      8.14225235     16.88422888   
   210       C          7.21868427      8.78341807     18.73160307   
   211       C          6.27740654      8.42013209     19.71018057   
   212       C          8.31480248      8.55764376     23.61154161   
   213       C         12.04408945     15.53643837     20.44246533   
   214       C          9.31599313      9.53624507     17.89934445   
   215       C         10.90757704     14.77661319     20.52710986   
   216       C          9.20380817      8.72928936     16.79679935   
   217       C          9.30390105     11.18112458     20.50535365   
   218       C         15.15249112     14.54336465     23.06397047   
   219       C         15.43406037     15.28148121     21.91410441   
   220       C          8.54890795     10.04192240     20.22654558   
   221       C         10.10780993     13.04508967     23.61016102   
   222       C         10.04268410     12.79867790     22.24118557   
   223       C          9.20985421     10.60077630     22.77680745   
   224       C         12.88079929     14.64219595     22.48638337   
   225       C          9.54526652     11.57256986     21.81436858   
   226       C         13.84395225     14.30221341     23.45579661   
   227       C         10.64388408     13.79070427     21.46636432   
   228       C          8.40882552      9.46692986     22.58121572   
   229       C         13.07781921     15.43494109     21.34713358   
   230       C          8.39975646      9.51229895     18.92767086   
   231       C         17.76771220     14.50811196     21.46210353   
   232       C         18.90003522     14.60625297     20.69675599   
   233       C         20.48212162     14.61539344     17.09874422   
   234       C         21.21014559     14.33965600     15.94109448   
   235       C         19.15699186     15.55762330     19.71998753   
   236       C         16.73119745     15.41154245     21.37779223   
   237       C          3.30173208     22.69813754     20.92702912   
   238       C          0.17871518     21.96518629     22.62032455   
   239       C          1.54300138     21.87670942     22.88408893   
   240       C          2.34141170     22.45862872     21.89898931   
   241       C         14.50108999     21.44715505     17.76587934   
   242       C         14.61177534     20.69582766     18.90493870   
   243       C         14.65274082     17.13321140     20.50623437   
   244       C         14.37428980     15.97349078     21.22856934   
   245       C         15.57640411     19.73457896     19.16349016   
   246       C         15.39752230     21.36122514     16.72367561   
   247       C         19.00465073     19.66573981     17.68751887   
   248       C         17.73536351     19.01238680     19.66850099   
   249       C         19.68095012     17.70768027     18.98139491   
   250       C         16.37062505     18.75659653     19.76081019   
   251       C         19.74952743     16.34022823     18.72827060   
   252       C         18.73453087     19.74079162     16.32342310   
   253       C         22.94971463     21.65336305     23.53299071   
   254       C         20.00153298     18.72919893     18.05963588   
   255       C         23.61663551     22.89987051     21.61930053   
   256       C         18.10514779     20.00210426     18.72346234   
   257       C         21.71594193     23.57959758     22.87911404   
   258       C         18.76069070     18.09453152     19.98751283   
   259       C         16.92645593     16.56319375     20.60163800   
   260       C         20.56529036     16.88825163     16.52410873   
   261       C         16.54565072     20.57638270     16.90074837   
   262       C         15.95935161     17.53008384     20.26796333   
   263       C         20.24111320     15.92209945     17.49618794   
   264       C         17.50420965     20.25108679     15.92114732   
   265       B         15.62598638      5.53281548      4.72647866   
   266       B         19.05618488      3.69220143      6.31127864   
   267       B          4.81885927     15.60527751      5.54866848   
   268       B         13.05937165     12.31694669      2.24703161   
   269       B          9.65730866     10.73705020      0.35569273   
   270       B          6.37045364     19.05863662      3.72619254   
   271       B          8.21404311     17.48207258      7.15915222   
   272       B         23.40162030     21.52315899      1.12111167   
   273       B         10.63053042      0.47487585      9.76161472   
   274       B         12.19047975      2.24217574     13.22620899   
   275       B         17.44186881      7.08983701      8.18002819   
   276       B          2.26388435     13.05691991     12.31758938   
   277       B          0.41232078      9.64055113     10.72460107   
   278       B         22.63234521     11.47766610     14.15446632   
   279       B         14.11830910     22.72736799     11.53769803   
   280       B          5.29954313      4.74209363     15.88610886   
   281       B          3.79384152      6.29792499     18.98763137   
   282       B         21.61234996      1.16945618     23.33347144   
   283       B          7.06389141      8.26145928     17.37817117   
   284       B         11.50270718     14.18241139     22.61994369   
   285       B          1.20944572     23.33785125     21.48978677   
   286       B         18.29883525     16.70687048     20.12521493   
   287       B         20.11352751     18.26822421     16.67004677   
   288       B         16.71060760     20.12795231     18.27964979   
   289       H         13.61679735      6.15898512      1.68389312   
   290       H          8.91485990      7.87553637      1.70503045   
   291       H         14.91391063      4.17457532      1.86182279   
   292       H         12.04125686      7.83787954      2.22775094   
   293       H         22.10738721      1.69489024      5.70029551   
   294       H         19.65836079      4.25522091      0.14753286   
   295       H         21.89610911      2.95068100      7.70798493   
   296       H         21.56026834      0.13463147      4.00504821   
   297       H         18.06089745      3.71852788      1.82473725   
   298       H         23.59844979      7.64328756      7.67080417   
   299       H          1.77689262     13.57726007      6.14805940   
   300       H          1.97945871     14.85042723      4.15048638   
   301       H          1.79422142      8.91355072      7.87115656   
   302       H          2.30525449     12.02278550      7.84297345   
   303       H         15.54983962      9.99345888      5.81907398   
   304       H         16.09188839     11.69808467      4.27654866   
   305       H         15.89848657     13.70463153      3.01571161   
   306       H          5.74076112     22.08962995      1.70450678   
   307       H          0.19532989     19.52756165      4.18235900   
   308       H          7.72290960     21.92424462      3.00740426   
   309       H          1.90788218     17.97015927      3.66723177   
   310       H          4.07552979     21.51030521      0.11646955   
   311       H          7.58580259     23.63113172      7.75937626   
   312       H          8.15662955     21.96649548      6.16379338   
   313       H         22.00146252     20.80144291      3.96721683   
   314       H          6.09488283      1.72450155     13.52370264   
   315       H          3.95170502      1.83052145     14.60294431   
   316       H          7.75178300      1.81212150      9.05863184   
   317       H          7.72971734      2.42115276     12.09388596   
   318       H         21.91955537      6.07417396      8.21230547   
   319       H          5.83687885     15.57504732     10.02604559   
   320       H         18.03861756     10.13349370     10.20618898   
   321       H         16.04161582      9.92778557      8.93245054   
   322       H         19.78304248     10.09797917     14.89089284   
   323       H         19.73883975      9.60675045     11.76271063   
   324       H          4.26866977     16.11031215     11.70789163   
   325       H          2.99190831     15.90924567     13.70325094   
   326       H         10.20987849     18.10371959     10.20940242   
   327       H         14.88346621     19.91715028     10.08569667   
   328       H          8.96541811     16.08843692      9.99614865   
   329       H         11.75185633     19.82436501      9.67151923   
   330       H         16.16605948     19.67768907     12.07348653   
   331       H         22.10338826     17.63691306     13.61763047   
   332       H         20.83348215     19.63743769     13.81143695   
   333       H         23.67216861     15.95054439     14.16770095   
   334       H         17.71408336     20.16080086     13.79287037   
   335       H          1.77101320      5.67277889     22.01248345   
   336       H          4.28492743      0.10525820     19.50259199   
   337       H          2.98043512      7.70629490     21.81370209   
   338       H          0.22222762      4.01549786     21.43849065   
   339       H          3.80076828      1.81438282     17.95023591   
   340       H          7.63914578      7.70888946     23.51052040   
   341       H          9.84149860      5.62153038     15.93162077   
   342       H         11.50849138      4.04613271     16.40014114   
   343       H         13.55859828      2.87555778     16.12414187   
   344       H         20.93797864      4.04149107     21.95844996   
   345       H          6.07426917      8.28780954     21.83583916   
   346       H         10.19209742     10.17933885     17.98091836   
   347       H          9.97091715      8.83283372     16.02707201   
   348       H         10.13720701     14.94828260     19.77204535   
   349       H          9.67475648     11.79693978     19.68582980   
   350       H         19.58671285     12.09745645     16.16303646   
   351       H         17.67476030     13.65188342     22.12957189   
   352       H         19.67290460     13.85076000     20.85457188   
   353       H         20.13076110     13.79577437     17.72443779   
   354       H         15.96958703     14.18264942     23.68771217   
   355       H          4.04365717     21.91203352     20.77164117   
   356       H         12.14204004     16.21490385     19.59552007   
   357       H         13.63814891     22.10560197     17.67302266   
   358       H         13.85897214     20.85262000     19.68006940   
   359       H         13.83419290     17.76019035     20.15504047   
   360       H         14.17091440     23.67583432     16.02124020   
   361      Tv         23.80330100      0.00000000      0.00000000   
   362      Tv          0.00000000     23.80330100      0.00000000   
   363      Tv          0.00000000      0.00000000     23.80330100   

                             CARTESIAN COORDINATES

   1    C       14.287955229     6.066556899     2.537170050
   2    C       15.064204677     4.941184435     2.624456755
   3    C       15.749692140     5.061986187     6.111854581
   4    C       15.149372888     6.905956506     4.593275387
   5    C       15.469336860     7.868085932     5.570710336
   6    C       14.364101988     7.097787309     3.447241657
   7    C       15.976894648     7.448171899     6.795794829
   8    C       20.312142252     3.388257078     0.054938019
   9    C       21.252920118     2.364857954     5.791866806
  10    C       21.146566969     3.117018463     6.931735481
  11    C       21.218191101     0.760920123     3.181977671
  12    C       18.672142420     3.354623013     2.649712057
  13    C       19.826174059     2.616958715     2.382591414
  14    C       20.497046294     1.923949410     3.451288219
  15    C       16.756024296     4.140393783     5.728169172
  16    C       18.027858472     4.793199312     7.707723094
  17    C       16.063300630     6.080291404     7.039707254
  18    C       17.024287498     4.082765991     4.362669007
  19    C       17.662239768     3.805409928     6.758875909
  20    C       21.150803956     1.327986163     0.906358292
  21    C       19.217642669     3.253173344     4.929068555
  22    C       21.462984249     0.357501778     1.878009039
  23    C       18.259107541     3.589252151     3.953347443
  24    C       16.041115954     4.682918619     3.575017777
  25    C       20.190316958     4.086883962     7.194024055
  26    C       20.378577265     2.484136296     1.092047843
  27    C       20.361510299     2.463141784     4.746378219
  28    C       19.391597193     5.058653725     7.798009014
  29    C        2.628669939    14.251393358     6.060439451
  30    C        2.728596197    15.014908041     4.927616553
  31    C        6.210067001    15.750358632     5.100452322
  32    C        4.667137030    15.134924285     6.922261767
  33    C        5.624220157    15.473383422     7.898554158
  34    C        3.522959958    14.344369052     7.104190397
  35    C       15.243038878    11.791679249     3.599606587
  36    C       15.148016100    12.930167333     2.843970797
  37    C        9.077031787     8.640169804     0.943491442
  38    C       12.656334158     8.660474019     2.590679871
  39    C       15.210333142     9.174791944     5.185073057
  40    C       14.481856918     9.451767154     4.027732759
  41    C       13.809318452     8.388164256     3.328272759
  42    C       12.053991626    13.712153377     1.122254232
  43    C       10.763352843    11.741811334     1.764824343
  44    C       11.025879450    10.376001726     1.834520408
  45    C       13.422062548    13.792894174     0.875842460
  46    C       11.034662868    14.042495589     0.201518746
  47    C       11.669354086    12.769590264     2.108377386
  48    C        9.774182867    12.123663888     0.824355920
  49    C       13.207761429    10.937926252     2.701174794
  50    C       12.250725909     9.965394783     2.351409089
  51    C       14.203905773    13.190527839     1.861822794
  52    C       10.052300635     9.588064856     1.218205339
  53    C       14.348272793    10.749618338     3.494895866
  54    C       16.568192448     8.231609945     7.787321332
  55    C        6.850161568    15.993485549     7.497182896
  56    C        5.834546125    21.239947319     2.380258690
  57    C        0.109257152    20.194363519     3.324749870
  58    C        6.958847441    21.159135112     3.158817059
  59    C        2.727215605    18.598114154     3.318680029
  60    C        3.249864686    21.155112354     0.732141932
  61    C        3.517056739    20.437871288     1.898551288
  62    C        2.451430560    19.747242313     2.577135793
  63    C        7.114616242    16.082771731     6.133182339
  64    C        5.825715100    16.746883828     4.168886334
  65    C        7.764851016    18.061016470     4.857515832
  66    C        4.457358539    16.988701563     4.083765729
  67    C        6.843258611    17.674379452     3.852159611
  68    C        4.996193863    19.189054904     3.254339706
  69    C        0.970603402    21.051758421     1.275523687
  70    C        4.034254863    18.212667301     3.577017254
  71    C        1.946657759    21.383243191     0.316345870
  72    C        7.219017521    20.212001765     4.138608535
  73    C        3.675896167    15.996270535     4.675706219
[...]
  293          H           0.161032        0.8390     0.83897
  294          H           0.160198        0.8398     0.83980
  295          H           0.151351        0.8486     0.84865
  296          H           0.170507        0.8295     0.82949
  297          H           0.171506        0.8285     0.82849
  298          H           0.161616        0.8384     0.83838
  299          H           0.161693        0.8383     0.83831
  300          H           0.152360        0.8476     0.84764
  301          H           0.152119        0.8479     0.84788
  302          H           0.171872        0.8281     0.82813
  303          H           0.170931        0.8291     0.82907
  304          H           0.161249        0.8388     0.83875
  305          H           0.151660        0.8483     0.84834
  306          H           0.162372        0.8376     0.83763
  307          H           0.160586        0.8394     0.83941
  308          H           0.153220        0.8468     0.84678
  309          H           0.171255        0.8287     0.82874
  310          H           0.172120        0.8279     0.82788
  311          H           0.163215        0.8368     0.83678
  312          H           0.172133        0.8279     0.82787
  313          H           0.150947        0.8491     0.84905
  314          H           0.162874        0.8371     0.83713
  315          H           0.185180        0.8148     0.81482
  316          H           0.156006        0.8440     0.84399
  317          H           0.172748        0.8273     0.82725
  318          H           0.171418        0.8286     0.82858
  319          H           0.170970        0.8290     0.82903
  320          H           0.161043        0.8390     0.83896
  321          H           0.151260        0.8487     0.84874
  322          H           0.152039        0.8480     0.84796
  323          H           0.171146        0.8289     0.82885
  324          H           0.160760        0.8392     0.83924
  325          H           0.151637        0.8484     0.84836
  326          H           0.161498        0.8385     0.83850
  327          H           0.153420        0.8466     0.84658
  328          H           0.152103        0.8479     0.84790
  329          H           0.172467        0.8275     0.82753
  330          H           0.162245        0.8378     0.83775
  331          H           0.161479        0.8385     0.83852
  332          H           0.152143        0.8479     0.84786
  333          H           0.171191        0.8288     0.82881
  334          H           0.171828        0.8282     0.82817
  335          H           0.161621        0.8384     0.83838
  336          H           0.158386        0.8416     0.84161
  337          H           0.149435        0.8506     0.85056
  338          H           0.168001        0.8320     0.83200
  339          H           0.167637        0.8324     0.83236
  340          H           0.161265        0.8387     0.83873
  341          H           0.176709        0.8233     0.82329
  342          H           0.165240        0.8348     0.83476
  343          H           0.152055        0.8479     0.84794
  344          H           0.148668        0.8513     0.85133
  345          H           0.170742        0.8293     0.82926
  346          H           0.159488        0.8405     0.84051
  347          H           0.145539        0.8545     0.85446
  348          H           0.151113        0.8489     0.84889
  349          H           0.170942        0.8291     0.82906
  350          H           0.161569        0.8384     0.83843
  351          H           0.161957        0.8380     0.83804
  352          H           0.152740        0.8473     0.84726
  353          H           0.171976        0.8280     0.82802
  354          H           0.171659        0.8283     0.82834
  355          H           0.152153        0.8478     0.84785
  356          H           0.160688        0.8393     0.83931
  357          H           0.160484        0.8395     0.83952
  358          H           0.151586        0.8484     0.84841
  359          H           0.170993        0.8290     0.82901
  360          H           0.170688        0.8293     0.82931


          ATOMIC ORBITAL ELECTRON POPULATIONS

     Atom    s        px        py        pz   
    1  C   1.06652   1.06950   1.01069   1.07621
    2  C   1.06474   0.93988   1.01874   0.98903
    3  C   1.08831   1.00034   0.94095   0.99262
    4  C   1.07327   0.98336   1.03760   0.97402
    5  C   1.04440   1.03282   1.00080   0.97932
    6  C   1.05249   0.97460   0.95694   0.95930
    7  C   1.05485   0.81285   0.97349   0.98132
    8  C   1.06498   1.07902   1.08182   1.01289
    9  C   1.06691   1.07649   1.06835   1.00727
   10  C   1.06447   0.98899   0.94215   1.02207
   11  C   1.08614   0.96822   1.00716   1.04063
   12  C   1.08735   1.00396   0.96107   1.03907
   13  C   1.06312   0.97471   0.98762   0.98122
   14  C   1.06274   0.98564   0.97386   0.97861
   15  C   1.06712   0.99814   0.96858   0.96918
   16  C   1.06687   0.96780   0.99768   0.96885
   17  C   1.06684   0.97075   0.96734   0.99926
   18  C   1.05478   0.98220   0.81503   0.97343
   19  C   1.08833   0.99283   1.00048   0.94210
   20  C   1.07346   0.98367   0.97466   1.03936
   21  C   1.07337   0.97562   0.98300   1.03695
   22  C   1.04524   1.02711   0.97765   1.00062
   23  C   1.04445   0.97799   1.03382   1.00064
   24  C   1.05241   1.01453   0.98194   1.12469
   25  C   1.05277   1.12293   1.01302   0.98033
   26  C   1.05292   0.96772   0.95868   0.95492
   27  C   1.05224   0.95782   0.97614   0.95817
   28  C   1.05399   0.97436   0.98343   0.82222
   29  C   1.06652   1.07734   1.07156   1.00868
   30  C   1.06507   0.98560   0.93943   1.02009
   31  C   1.08830   0.98976   0.99931   0.93837
   32  C   1.07333   0.97510   0.98330   1.03815
   33  C   1.04454   0.97977   1.03288   1.00124
   34  C   1.05278   0.95810   0.97318   0.95717
   35  C   1.06639   1.07767   1.00919   1.07271
   36  C   1.06512   0.98545   1.01982   0.93993
   37  C   1.06378   0.94470   0.99600   1.02198
   38  C   1.08611   1.00656   1.04053   0.97281
   39  C   1.08720   0.96042   1.03892   1.00589
   40  C   1.06247   0.99056   0.98051   0.97618
   41  C   1.06333   0.97221   0.97898   0.98279
   42  C   1.06659   0.96705   0.97032   0.99887
   43  C   1.06697   0.99702   0.96823   0.96640
   44  C   1.05353   0.98446   0.97476   0.82842
   45  C   1.05448   0.97449   0.81778   0.98245
   46  C   1.08818   0.94051   1.00074   0.99032
   47  C   1.08766   0.99060   0.94251   1.00356
   48  C   1.08832   1.00054   0.99126   0.94188
   49  C   1.07316   0.97643   1.03888   0.98548
   50  C   1.04539   0.97640   0.99898   1.02181
   51  C   1.05241   1.12572   0.98242   1.01353
   52  C   1.05333   1.00944   1.12472   0.97511
   53  C   1.05268   0.95636   0.95652   0.97199
   54  C   1.05196   0.98673   1.12443   1.01430
   55  C   1.05552   0.98006   0.80718   0.97351
   56  C   1.06782   1.00792   1.07217   1.06211
   57  C   1.06547   1.01168   1.07745   1.08108
   58  C   1.06419   1.02220   0.99528   0.94368
   59  C   1.08787   1.03811   1.00423   0.95503
   60  C   1.08540   1.04194   0.97822   1.00811
   61  C   1.06338   0.97702   0.98000   0.97086
   62  C   1.06239   0.98195   0.97768   0.99344
   63  C   1.06643   0.99930   0.97317   0.96791
   64  C   1.06702   0.96718   0.99896   0.96958
   65  C   1.06684   0.96694   0.96787   0.99781
   66  C   1.05470   0.97345   0.98174   0.81311
   67  C   1.08799   0.94099   0.99043   1.00134
   68  C   1.07340   1.03627   0.97399   0.98263
   69  C   1.07288   1.04042   0.98711   0.97671
   70  C   1.04376   1.00110   0.98035   1.03842
   71  C   1.04568   0.99844   1.01643   0.97511
   72  C   1.05380   0.96989   1.12593   1.01058
   73  C   1.05228   1.12440   1.01249   0.98540
   74  C   1.05206   0.95876   0.95975   0.98010
   75  C   1.05296   0.95507   0.96730   0.95659
   76  C   1.05306   0.83229   0.97632   0.98463
   77  C   1.08548   0.98291   1.04142   1.00820
   78  C   1.08775   0.99981   0.94190   0.99114
   79  C   1.07287   0.98771   1.04225   0.97789
   80  C   1.04640   1.01287   0.99753   0.97400
   81  C   1.06594   1.01777   0.93694   0.98060
   82  C   1.06574   0.97686   1.00088   0.96797
   83  C   1.05545   0.80792   0.98007   0.97401
   84  C   1.05172   0.98887   1.01856   1.12409
   85  C   1.08744   0.96790   0.98551   0.94276
   86  C   1.05539   1.05884   1.08579   1.00645
   87  C   1.10573   0.90240   0.90819   1.05087
   88  C   1.11024   0.96668   0.90029   0.86346
   89  C   1.04452   1.00707   0.99875   1.13807
   90  C   1.04689   0.99142   1.02368   1.08113
   91  C   1.06383   1.01438   1.09816   1.08948
   92  C   1.06350   1.00475   1.02650   0.94989
   93  C   1.06866   1.00992   0.92025   0.97058
   94  C   1.09857   1.03081   0.97240   0.86807
   95  C   1.07943   1.04636   1.03620   1.02749
   96  C   1.06717   0.96175   0.91561   0.94298
   97  C   1.05436   0.99602   1.02176   1.04195
   98  C   1.06598   0.97530   0.99907   0.96936
   99  C   1.06576   0.96733   0.96442   0.99753
  100  C   1.05575   0.79714   0.97691   0.97320
  101  C   1.05123   0.98003   0.86282   0.98947
  102  C   1.08794   0.94186   0.99633   0.99603
  103  C   1.08746   0.98852   0.94280   1.00649
  104  C   1.08864   0.99898   0.98912   0.93514
  105  C   1.07165   1.04683   1.01761   0.98391
  106  C   1.05141   0.99497   0.95660   0.96333
  107  C   1.05659   1.12318   0.95144   1.00290
  108  C   1.04960   1.00288   1.03682   1.11261
  109  C   1.05515   0.94449   0.92431   0.94749
  110  C   1.08611   1.04114   1.00631   0.97015
  111  C   1.06292   0.97895   0.97313   0.98424
  112  C   1.08810   0.94064   0.99096   1.00325
  113  C   1.07332   1.03822   0.97570   0.98506
  114  C   1.04509   0.99990   0.97706   1.02382
  115  C   1.06629   1.07224   1.07776   1.01031
  116  C   1.06515   0.93904   0.98605   1.01894
  117  C   1.06469   1.02069   0.94114   0.98950
  118  C   1.08640   0.96869   1.00661   1.04097
  119  C   1.08720   1.00379   0.96103   1.04018
  120  C   1.06253   0.97593   0.98958   0.98069
  121  C   1.06325   0.98348   0.97279   0.97944
  122  C   1.06659   0.97016   0.99865   0.96770
  123  C   1.06650   0.99912   0.96735   0.97122
  124  C   1.05461   0.98164   0.97445   0.81558
  125  C   1.05411   0.82095   0.98275   0.97475
  126  C   1.08810   0.94043   0.99955   0.99102
  127  C   1.08806   0.99041   0.93957   0.99866
  128  C   1.08799   0.99996   0.99011   0.93982
  129  C   1.07334   0.98553   0.97560   1.03892
  130  C   1.04524   1.02409   0.97725   0.99993
  131  C   1.05220   1.01568   1.12398   0.98360
  132  C   1.05266   0.98079   1.01363   1.12317
  133  C   1.05271   0.97150   0.95738   0.95620
  134  C   1.06617   1.00970   1.07853   1.07339
  135  C   1.06628   1.07791   1.00972   1.07250
  136  C   1.06692   1.00829   1.06852   1.07606
  137  C   1.06521   1.01943   0.98398   0.93896
  138  C   1.06518   0.98567   1.01900   0.93878
  139  C   1.08653   1.00592   1.04008   0.96684
  140  C   1.08713   1.03973   0.96144   1.00501
  141  C   1.06265   0.98042   0.98919   0.97553
  142  C   1.06278   0.97413   0.97921   0.98640
  143  C   1.06672   0.96784   0.97040   0.99912
  144  C   1.05479   0.97402   0.81451   0.98157
  145  C   1.07327   0.97549   1.03920   0.98474
  146  C   1.07368   1.03751   0.98342   0.97474
  147  C   1.04494   0.97796   0.99992   1.02760
  148  C   1.04462   1.00054   1.03219   0.97872
  149  C   1.05234   1.12494   0.98398   1.01469
  150  C   1.05291   0.95623   0.95705   0.97097
  151  C   1.05270   0.95780   0.95641   0.97197
  152  C   1.05248   0.95764   0.97523   0.95875
  153  C   1.05155   1.01874   0.99082   1.12484
  154  C   1.06339   0.97864   0.97529   0.97013
  155  C   1.06999   1.06622   1.00423   1.05051
  156  C   1.06524   1.08033   1.01073   1.08225
  157  C   1.06717   1.06718   1.07631   1.00565
  158  C   1.06595   0.93478   1.01718   0.97914
  159  C   1.06489   0.94122   0.98527   1.02468
  160  C   1.08850   1.00468   1.03735   0.94921
  161  C   1.08786   0.95244   1.00004   1.04074
  162  C   1.06237   0.97826   0.98274   0.99499
  163  C   1.06181   0.99416   0.97876   0.98275
  164  C   1.06727   0.99943   0.96553   0.96849
  165  C   1.05449   0.98250   0.97358   0.81698
  166  C   1.07425   0.97232   1.03475   0.98262
  167  C   1.07301   0.98127   0.97553   1.03632
  168  C   1.04372   0.98039   1.00086   1.04119
  169  C   1.04320   1.04029   0.98339   1.00342
  170  C   1.05321   1.00903   1.12371   0.98166
  171  C   1.05206   0.96188   0.96046   0.98551
  172  C   1.05303   0.96600   0.95482   0.95522
  173  C   1.05290   0.97529   0.95845   0.95881
  174  C   1.06704   1.06801   1.00865   1.07576
  175  C   1.06470   0.94121   1.02049   0.99012
  176  C   1.08557   1.00761   0.97538   1.04252
  177  C   1.06359   0.97053   0.97885   0.97740
  178  C   1.05300   1.01393   0.97766   1.12384
  179  C   1.05241   0.97496   0.95734   0.95841
  180  C   1.06076   0.96942   0.96398   0.75801
  181  C   1.06834   1.06979   1.00233   1.05430
  182  C   1.06523   1.08445   1.01030   1.08423
  183  C   1.06635   0.93082   1.01513   0.97429
  184  C   1.09020   0.99196   1.03664   0.92363
  185  C   1.07784   1.05001   1.03831   1.03978
  186  C   1.06555   0.94666   0.97180   0.94756
  187  C   1.05720   0.99617   0.98460   1.03077
  188  C   1.06786   0.98695   0.96448   0.96966
  189  C   1.06482   0.96574   1.02047   0.98189
  190  C   1.01638   0.97850   0.94188   1.04565
  191  C   0.98679   1.07996   0.98059   1.00837
  192  C   1.08171   1.01089   0.94884   0.99431
  193  C   1.07448   0.96876   1.03267   0.96685
  194  C   1.07011   1.00107   1.04046   0.98254
  195  C   1.04100   0.98941   1.00391   1.07018
  196  C   1.04311   0.96007   0.99642   0.93326
  197  C   1.09327   0.84586   0.98759   0.90505
  198  C   1.05061   1.02495   0.98799   1.12054
  199  C   1.05071   0.96772   0.96316   0.99425
  200  C   1.05483   0.94846   0.95070   0.94009
  201  C   1.05503   0.98154   0.81165   0.97168
  202  C   1.04671   1.12898   1.04209   1.01817
  203  C   1.06550   0.93455   0.98207   1.01411
  204  C   1.06674   1.00024   0.96970   0.97575
  205  C   1.05682   0.97596   0.97092   0.79091
  206  C   1.05007   1.02298   1.12080   1.00336
  207  C   1.08387   1.00794   0.98328   1.04078
  208  C   1.06318   0.97079   0.97865   0.97629
  209  C   1.08822   0.98851   1.00818   0.91549
  210  C   1.07103   0.97869   0.98479   1.03995
  211  C   1.04498   0.97756   1.01422   0.99887
  212  C   1.06769   1.06288   1.07214   1.00706
  213  C   1.06529   1.01217   1.07810   1.07981
  214  C   1.06196   1.08886   1.09072   1.02340
  215  C   1.06561   1.01616   0.93683   0.98183
  216  C   1.06604   0.96916   0.92743   1.00709
  217  C   1.08856   0.95097   1.00268   1.03641
  218  C   1.08610   1.03978   0.97176   1.00732
  219  C   1.06320   0.97860   0.98280   0.97230
  220  C   1.06262   0.99426   0.97893   0.98370
  221  C   1.06699   0.97035   0.99941   0.96850
  222  C   1.05541   0.80494   0.98061   0.97258
  223  C   1.07374   0.97969   0.97309   1.03575
  224  C   1.07285   1.04066   0.98572   0.97596
  225  C   1.04327   1.04527   0.98116   1.00169
  226  C   1.04539   0.99940   1.02281   0.97701
  227  C   1.05147   0.98978   1.01552   1.12716
  228  C   1.05178   0.98263   0.96017   0.95962
  229  C   1.05265   0.95506   0.96902   0.95668
  230  C   1.05300   0.95806   0.95659   0.95152
  231  C   1.06696   1.00834   1.07560   1.06842
  232  C   1.06506   1.02047   0.98856   0.94088
  233  C   1.08692   0.96360   1.03938   1.00607
  234  C   1.06290   0.98687   0.98010   0.97430
  235  C   1.05302   0.97934   1.12430   1.01237
  236  C   1.05269   0.95744   0.95930   0.97414
  237  C   1.06295   0.99872   1.02887   0.95084
  238  C   1.06641   0.96661   0.97101   0.99890
  239  C   1.05333   0.97574   0.82929   0.98479
  240  C   1.05428   1.11942   0.97251   1.00644
  241  C   1.06538   1.08038   1.07791   1.01098
  242  C   1.06558   0.98225   0.93620   1.01729
  243  C   1.08732   1.03857   1.00497   0.95869
  244  C   1.06242   0.98175   0.97615   0.99041
  245  C   1.05133   1.12163   1.01922   0.99050
  246  C   1.05279   0.95630   0.96736   0.95519
  247  C   1.06637   0.99871   0.97024   0.96799
  248  C   1.06633   0.96737   0.99953   0.97329
  249  C   1.06686   0.96922   0.96767   0.99907
  250  C   1.05502   0.97366   0.98057   0.80802
  251  C   1.05430   0.81890   0.97442   0.98254
  252  C   1.05394   0.98308   0.82459   0.97527
  253  C   1.08796   0.94037   0.99979   0.99064
  254  C   1.08790   0.99956   0.94151   0.99129
  255  C   1.08889   0.99186   0.93849   0.99594
  256  C   1.08809   0.99061   0.99917   0.93966
  257  C   1.08867   0.99122   0.99433   0.93766
  258  C   1.08836   0.93842   0.99030   0.99881
  259  C   1.07316   1.03828   0.97461   0.98292
  260  C   1.07343   0.98439   1.03801   0.97499
  261  C   1.07341   0.97655   0.98703   1.04006
  262  C   1.04386   1.00130   0.98038   1.03560
  263  C   1.04469   1.02985   1.00004   0.97770
  264  C   1.04620   0.97527   1.01655   0.99899
  265  B   0.63749   0.48302   0.97056   0.97335
  266  B   0.63898   0.97482   0.47232   0.97269
  267  B   0.63697   0.97343   0.48527   0.96951
  268  B   0.63863   0.97488   0.97001   0.47569
  269  B   0.63968   0.46833   0.97442   0.97438
  270  B   0.64012   0.97110   0.97462   0.46700
  271  B   0.63808   0.47827   0.96738   0.97563
  272  B   0.63738   0.96595   0.48443   0.97520
  273  B   0.64459   0.97674   0.96991   0.44252
  274  B   0.63960   0.96556   0.47887   0.97312
  275  B   0.63758   0.96863   0.97402   0.48344
  276  B   0.63842   0.47791   0.97461   0.96823
  277  B   0.63898   0.97078   0.47373   0.97513
  278  B   0.63792   0.97415   0.96890   0.47921
  279  B   0.63626   0.48971   0.97179   0.96884
  280  B   0.48136   0.95482   1.00189   0.89989
  281  B   0.63924   0.48049   0.97243   0.97912
  282  B   0.63402   0.50527   0.97259   0.96927
  283  B   0.62381   0.95812   0.55928   0.96332
  284  B   0.63634   0.96905   0.48909   0.97292
  285  B   0.63699   0.97549   0.97601   0.48039
  286  B   0.63763   0.96954   0.97303   0.48126
  287  B   0.63981   0.46802   0.97059   0.97513
  288  B   0.63786   0.97513   0.48151   0.96761
  289  H   0.83868
  290  H   0.84823
  291  H   0.84828
  292  H   0.82851
  293  H   0.83897
  294  H   0.83980
  295  H   0.84865
  296  H   0.82949
  297  H   0.82849
  298  H   0.83838
  299  H   0.83831
  300  H   0.84764
  301  H   0.84788
  302  H   0.82813
  303  H   0.82907
  304  H   0.83875
  305  H   0.84834
  306  H   0.83763
  307  H   0.83941
  308  H   0.84678
  309  H   0.82874
  310  H   0.82788
  311  H   0.83678
  312  H   0.82787
  313  H   0.84905
  314  H   0.83713
  315  H   0.81482
  316  H   0.84399
  317  H   0.82725
  318  H   0.82858
  319  H   0.82903
  320  H   0.83896
  321  H   0.84874
  322  H   0.84796
  323  H   0.82885
  324  H   0.83924
  325  H   0.84836
  326  H   0.83850
  327  H   0.84658
  328  H   0.84790
  329  H   0.82753
  330  H   0.83775
  331  H   0.83852
  332  H   0.84786
  333  H   0.82881
  334  H   0.82817
  335  H   0.83838
  336  H   0.84161
  337  H   0.85056
  338  H   0.83200
  339  H   0.83236
  340  H   0.83873
  341  H   0.82329
  342  H   0.83476
  343  H   0.84794
  344  H   0.85133
  345  H   0.82926
  346  H   0.84051
  347  H   0.85446
  348  H   0.84889
  349  H   0.82906
  350  H   0.83843
  351  H   0.83804
  352  H   0.84726
  353  H   0.82802
  354  H   0.82834
  355  H   0.84785
  356  H   0.83931
  357  H   0.83952
  358  H   0.84841
  359  H   0.82901
  360  H   0.82931

 **********************
 *                    *
 * JOB ENDED NORMALLY *
 *                    *
 **********************



 TOTAL JOB TIME:           112.98 SECONDS

 == MOPAC DONE ==
