 *******************************************************************************
 **                                                                           **
 **                              MOPAC v22.1.0                                **
 **                                                                           **
 *******************************************************************************
 **          Digital Object Identifier (DOI): 10.5281/zenodo.6511958          **
 **    Visit the DOI location for information on how to cite this program.    **
 *******************************************************************************

                              PM7 CALCULATION RESULTS

 *******************************************************************************
 *  CALCULATION DONE:                                Thu Feb  1 11:52:29 2024  *
 *  PM7        - The PM7 Hamiltonian to be used
 *  NOOPT      - DO NOT OPTIMIZE ANY COORDINATES
 *
 *
 *
 *                 CHARGE ON SYSTEM = 0
 *
 *
 *
 *  T=         - A TIME OF 172800.0 SECONDS REQUESTED
 *  DUMP=N     - RESTART FILE WRITTEN EVERY 7200.0 SECONDS REQUESTED
 *******************************************************************************
PM7 CHARGE=0 NOOPT


   ATOM   CHEMICAL          X               Y               Z
  NUMBER   SYMBOL      (ANGSTROMS)     (ANGSTROMS)     (ANGSTROMS)

     1       C         14.77943076      6.16861272      2.54933623   
     2       C         15.56203155      5.04391827      2.69698045   
     3       C         15.13362798      5.60277131      5.13483906   
     4       C         15.95117059      7.48278551      6.90589720   
     5       C         15.91120963      5.17376737      6.18751252   
     6       C         15.02445579      6.93425892      4.75506586   
     7       C         15.45547700      7.94300895      5.64227599   
     8       C         14.58296405      7.19006669      3.46478800   
     9       C         20.78320452      3.45441352      0.16486297   
    10       C         21.46563875      2.77195527      5.83888678   
    11       C         21.31801855      3.55453205      6.96358123   
    12       C         21.41263765      0.86307505      3.23285114   
    13       C         18.87432430      3.40138840      2.77087460   
    14       C         20.05843185      2.72952077      2.47623458   
    15       C         20.74077002      2.04718260      3.52749116   
    16       C         16.83103212      4.18912840      5.89565824   
    17       C         18.11936478      4.82350861      7.81832307   
    18       C         16.19665191      6.11188929      7.18399089   
    19       C         18.88013593      3.12615249      6.40472819   
    20       C         17.10910180      3.94364708      4.52471399   
    21       C         17.82763057      3.90373415      6.83373213   
    22       C         21.02818153      1.24865987      0.93050917   
    23       C         19.25990912      3.01693228      5.07321657   
    24       C         21.45920273      0.36144975      1.93925920   
    25       C         18.37269900      3.44795348      4.06449055   
    26       C         20.58671380      2.53896175      1.18629292   
    27       C         20.55021100      2.57546455      4.81743281   
    28       C          2.54936025     14.77945477      6.16861272   
    29       C          2.69698045     15.56203155      5.04389425   
    30       C          5.13486307     15.13362798      5.60277131   
    31       C          6.90589720     15.95117059      7.48276149   
    32       C          6.18748851     15.91120963      5.17376737   
    33       C          4.75508988     15.02443178      6.93425892   
    34       C          5.64230000     15.45545298      7.94300895   
    35       C          3.46478800     14.58296405      7.19004267   
    36       C         15.46191302     11.84263653      3.23179448   
    37       C         15.31426880     12.96733098      2.44921770   
    38       C          9.55828180      8.70073020      0.95983148   
    39       C         12.87057455      8.77464836      2.60236135   
    40       C         15.40888790      9.23660089      5.14067470   
    41       C         14.73702027      9.53124091      3.95656715   
    42       C         14.05470612      8.48000834      3.27425299   
    43       C         12.11561503     13.82209684      1.18024114   
    44       C         10.82725836     11.89938397      1.81457332   
    45       C         12.87641019     12.40847794      2.87759726   
    46       C          9.12990224     11.13861282      0.40097844   
    47       C         11.10537606     10.52848776      2.06007866   
    48       C         13.48653526     14.06757816      0.90214745   
    49       C         11.17749310     14.10753912      0.18361868   
    50       C         11.82388082     12.83750590      2.10001560   
    51       C          9.90748390     12.19111818      0.83000640   
    52       C         13.25618339     11.07696632      2.98681747   
    53       C         12.36897326     10.06824030      2.55579627   
    54       C         14.54646125     10.82118256      3.42830921   
    55       C          5.83888678     21.46566277      2.77195527   
    56       C          0.16486297     20.78320452      3.45438950   
    57       C          6.96358123     21.31801855      3.55455606   
    58       C          2.77089861     18.87432430      3.40138840   
    59       C          3.23287515     21.41263765      0.86307505   
    60       C          3.52749116     20.74077002      2.04718260   
    61       C          2.47625859     20.05843185      2.72952077   
    62       C          7.18399089     16.19665191      6.11186528   
    63       C          5.89563422     16.83100811      4.18915241   
    64       C          7.81834709     18.11938879      4.82350861   
    65       C          6.40475220     18.88015994      3.12615249   
    66       C          4.52473801     17.10912581      3.94367109   
    67       C          6.83375615     17.82765458      3.90373415   
    68       C          5.07324058     19.25993314      3.01695629   
    69       C          0.93053318     21.02818153      1.24865987   
    70       C          4.06449055     18.37272301      3.44797750   
    71       C          1.93925920     21.45920273      0.36144975   
    72       C          4.81745683     20.55021100      2.57546455   
    73       C          1.18631694     20.58671380      2.53896175   
    74       C          8.60611110     21.24410039      6.86682480   
    75       C          8.88137102     17.61027081      6.87266044   
    76       C          8.06385242     19.49028501      5.10162631   
    77       C          8.10378937     17.18126687      5.82003501   
    78       C          8.99056722     18.94175842      7.25243364   
    79       C          8.55954602     19.95050845      6.36522351   
    80       C         23.05516752     21.56578130      3.30676930   
    81       C         22.20042568     22.83475786      0.10816356   
    82       C         23.61402056     21.13740174      0.86888668   
    83       C         21.95492034     23.11285155      1.47903576   
    84       C          6.16861272      2.54933623     14.77945477   
    85       C          5.04391827      2.69698045     15.56203155   
    86       C          5.60277131      5.13483906     15.13365199   
    87       C          7.48278551      6.90587319     15.95117059   
    88       C          5.17376737      6.18753654     15.91123365   
    89       C          6.93425892      4.75506586     15.02445579   
    90       C          7.94300895      5.64227599     15.45547700   
    91       C          7.19004267      3.46478800     14.58296405   
    92       C         11.84263653      3.23179448     15.46188900   
    93       C          8.70073020      0.95983148      9.55828180   
    94       C         12.96733098      2.44921770     15.31424479   
    95       C          9.23660089      5.14067470     15.40888790   
    96       C          8.77462435      2.60236135     12.87057455   
    97       C          8.47998433      3.27422898     14.05468210   
    98       C          9.53124091      3.95656715     14.73699626   
    99       C         13.82212085      1.18019311     12.11556700   
   100       C         11.89943200      1.81462135     10.82730639   
   101       C         11.13858881      0.40097844      9.12985421   
   102       C         12.40847794      2.87762127     12.87641019   
   103       C         14.06757816      0.90212344     13.48651124   
   104       C         10.52846374      2.06007866     11.10535205   
   105       C         12.83745787      2.10001560     11.82361665   
   106       C         12.19138235      0.82995837      9.90748390   
   107       C         14.10751510      0.18390686     11.17754113   
   108       C         11.07696632      2.98681747     13.25615937   
   109       C         10.06824030      2.55577225     12.36894925   
   110       C         10.82118256      3.42828520     14.54646125   
   111       C         21.24410039      6.86682480      8.60611110   
   112       C         17.61027081      6.87266044      8.88134701   
   113       C         19.49026099      5.10162631      8.06382841   
   114       C         17.18124285      5.82015508      8.10376535   
   115       C         18.94175842      7.25243364      8.99056722   
   116       C         19.95050845      6.36522351      8.55954602   
   117       C          3.23179448     15.46188900     11.84263653   
   118       C          2.44921770     15.31426880     12.96735500   
   119       C          0.95983148      9.55828180      8.70070618   
   120       C          2.60236135     12.87057455      8.77464836   
   121       C          5.14067470     15.40888790      9.23660089   
   122       C          3.95656715     14.73702027      9.53124091   
   123       C          3.27425299     14.05468210      8.48000834   
   124       C          1.81464537     10.82725836     11.89938397   
   125       C          1.18024114     12.11563904     13.82207282   
   126       C          2.87762127     12.87638618     12.40847794   
   127       C          0.40100245      9.12985421     11.13856479   
   128       C          0.90212344     13.48651124     14.06757816   
   129       C          2.06010267     11.10535205     10.52846374   
   130       C          0.82998238      9.90745988     12.19135833   
   131       C          0.18359467     11.17749310     14.10751510   
   132       C          2.10003962     11.82388082     12.83750590   
   133       C          2.98681747     13.25615937     11.07696632   
   134       C          2.55579627     12.36894925     10.06824030   
   135       C          3.42830921     14.54646125     10.82118256   
   136       C         21.53874041      8.05093235      9.27800274   
   137       C         18.17611222      9.45816327      9.23556824   
   138       C         20.56056147     12.17238648     15.23931799   
   139       C         23.85013603      8.77570502      8.55308598   
   140       C         17.05141777      9.31054307      8.45296745   
   141       C         20.70818167     11.04766802     14.45671720   
   142       C         23.15192395     15.24035064     14.60986085   
   143       C         20.78217188      9.40513815     11.14444847   
   144       C         20.48750784      8.73327052      9.96034091   
   145       C         21.96781640     15.53499066     15.28175249   
   146       C         23.90690749     10.19287815     13.18774064   
   147       C         23.14608831     11.60652106     14.88507274   
   148       C         22.53598726      9.94742084     12.90964695   
   149       C         22.76631511     12.93800867     14.99429296   
   150       C         23.08448983      9.02068203     10.75883963   
   151       C         23.65352524     13.94675870     14.56327175   
   152       C         22.07576382      9.45172725     11.64604975   
   153       C         19.19756619      8.54271150      9.43205896   
   154       C         21.47603725     13.19381644     15.43580871   
   155       C         22.82870608      8.57921430      9.46853775   
   156       C         21.28547823     14.48375809     15.96406665   
   157       C          9.27797873     21.53874041      8.05093235   
   158       C          8.55308598     23.85013603      8.77568101   
   159       C          9.23554423     18.17611222      9.45816327   
   160       C         15.23929398     20.56058548     12.17236247   
   161       C          8.45296745     17.05141777      9.31051905   
   162       C         14.45671720     20.70822970     11.04766802   
   163       C         11.14442445     20.78214786      9.40513815   
   164       C         14.60986085     23.15192395     15.24035064   
   165       C          9.96031690     20.48750784      8.73327052   
   166       C         15.28172848     21.96781640     15.53499066   
   167       C         13.18769261     23.90693150     10.19285413   
   168       C         14.88512077     23.14608831     11.60652106   
   169       C         12.90964695     22.53598726      9.94742084   
   170       C         10.75883963     23.08448983      9.02068203   
   171       C         14.99431697     22.76631511     12.93800867   
   172       C         11.64604975     22.07573980      9.45170323   
   173       C         14.56329577     23.65352524     13.94675870   
   174       C          9.46853775     22.82868206      8.57919029   
   175       C          9.43203495     19.19754217      8.54271150   
   176       C         15.43578470     21.47603725     13.19379242   
   177       C         15.96406665     21.28547823     14.48373408   
   178       C         21.24304373     17.84638628     14.55685975   
   179       C         20.46046695     18.97108073     14.70450396   
   180       C         17.14817420     20.61361060     14.77839811   
   181       C         21.43953445     16.82495633     15.47228750   
   182       C          3.45441352      0.16486297     20.78318051   
   183       C          2.77195527      5.83888678     21.46566277   
   184       C          3.55453205      6.96358123     21.31801855   
   185       C          0.86307505      3.23287515     21.41263765   
   186       C          3.40138840      2.77089861     18.87432430   
   187       C          2.72952077      2.47625859     20.05843185   
   188       C          2.04718260      3.52751517     20.74077002   
   189       C          4.82355664      7.81837110     18.11931675   
   190       C          6.11184126      7.18396688     16.19665191   
   191       C          4.18912840      5.89565824     16.83103212   
   192       C          3.12612848      6.40472819     18.88015994   
   193       C          3.94364708      4.52471399     17.10912581   
   194       C          3.90373415      6.83368410     17.82734239   
   195       C          1.24865987      0.93053318     21.02818153   
   196       C          3.01693228      5.07324058     19.25990912   
   197       C          0.36144975      1.93925920     21.45920273   
   198       C          3.44795348      4.06449055     18.37272301   
   199       C          2.53896175      1.18631694     20.58671380   
   200       C          2.57544054      4.81745683     20.55021100   
   201       C         21.56578130      3.30674529     23.05514350   
   202       C         22.83480589      0.10809151     22.20040166   
   203       C         21.13737773      0.86891069     23.61402056   
   204       C         23.11287556      1.47903576     21.95492034   
   205       C          6.86682480      8.60611110     21.24410039   
   206       C          6.87263643      8.88137102     17.61027081   
   207       C          5.10160230      8.06382841     19.49026099   
   208       C          5.81996296      8.10376535     17.18126687   
   209       C          7.25240962      8.99056722     18.94178243   
   210       C          6.36519950      8.55954602     19.95050845   
   211       C          8.05093235      9.27797873     21.53876442   
   212       C          8.77570502      8.55308598     23.85013603   
   213       C         12.17236247     15.23929398     20.56058548   
   214       C          9.45816327      9.23554423     18.17611222   
   215       C         11.04766802     14.45671720     20.70822970   
   216       C          9.31049504      8.45296745     17.05141777   
   217       C          9.40513815     11.14442445     20.78214786   
   218       C         15.24035064     14.60986085     23.15192395   
   219       C         15.53499066     15.28175249     21.96781640   
   220       C          8.73327052      9.96031690     20.48750784   
   221       C         10.19292618     13.18774064     23.90685946   
   222       C         11.60649705     14.88512077     23.14611232   
   223       C          9.94742084     12.90964695     22.53598726   
   224       C          9.02068203     10.75883963     23.08448983   
   225       C         12.93800867     14.99434099     22.76633913   
   226       C          9.45170323     11.64602574     22.07573980   
   227       C         13.94675870     14.56329577     23.65354925   
   228       C          8.57921430      9.46853775     22.82870608   
   229       C         13.19379242     15.43580871     21.47603725   
   230       C          8.54271150      9.43203495     19.19756619   
   231       C         14.48373408     15.96406665     21.28547823   
   232       C         17.84636227     14.55683573     21.24306774   
   233       C         18.97108073     14.70447995     20.46046695   
   234       C         20.61361060     14.77839811     17.14817420   
   235       C         16.82493231     15.47228750     21.43955846   
   236       C          3.30674529     23.05516752     21.56578130   
   237       C          0.10809151     22.20040166     22.83478187   
   238       C          0.86891069     23.61402056     21.13737773   
   239       C          1.47903576     21.95492034     23.11285155   
   240       C         14.55683573     21.24304373     17.84638628   
   241       C         14.70447995     20.46046695     18.97108073   
   242       C         14.77839811     17.14817420     20.61361060   
   243       C         15.47228750     21.43953445     16.82493231   
   244       C         19.19144236     19.82584659     17.90315774   
   245       C         17.90315774     19.19146638     19.82587060   
   246       C         19.82587060     17.90315774     19.19146638   
   247       C         18.41222769     17.14233856     20.88887052   
   248       C         20.88887052     18.41222769     17.14236257   
   249       C         17.14233856     20.88887052     18.41222769   
   250       C         16.53221349     18.91339670     20.07132791   
   251       C         20.07132791     16.53221349     18.91339670   
   252       C         18.91337269     20.07135192     16.53221349   
   253       C         23.18501662     21.91498340     23.83133229   
   254       C         20.11126485     18.84120762     18.19503604   
   255       C         23.83114017     23.18506465     21.91498340   
   256       C         18.19506005     20.11126485     18.84120762   
   257       C         21.91498340     23.83118820     23.18504063   
   258       C         18.84120762     18.19506005     20.11126485   
   259       C         17.08074008     16.76258938     20.99806672   
   260       C         20.99806672     17.08074008     16.76258938   
   261       C         16.76258938     20.99806672     17.08074008   
   262       C         16.07199005     17.64979950     20.56704552   
   263       C         20.56702150     16.07199005     17.64979950   
   264       C         17.64977549     20.56704552     16.07199005   
   265       B         15.97023850      4.86462229      4.16194342   
   266       B         19.85283945      3.96276301      7.14285320   
   267       B          4.16206349     15.97026251      4.86462229   
   268       B         13.84911371     13.14660295      2.04098674   
   269       B          9.96651276     10.16588529      1.13910345   
   270       B          7.14287721     19.85281543      3.96278703   
   271       B          8.04473649     16.87212179      7.84543601   
   272       B         22.87587154     21.97403628      1.84159020   
   273       B          4.86462229      4.16196743     15.97026251   
   274       B         10.16557309      1.13912746      9.96648875   
   275       B         13.14662696      2.04098674     13.84940189   
   276       B         16.87212179      7.84531593      8.04471247   
   277       B          2.04098674     13.84906568     13.14660295   
   278       B          1.13915148      9.96651276     10.16562112   
   279       B         22.17343282     10.86839605     14.04846222   
   280       B         14.04851025     22.17307259     10.86837204   
   281       B          3.96273900      7.14287721     19.85317566   
   282       B         21.97401226      1.84180633     22.87587154   
   283       B          7.84553207      8.04473649     16.87212179   
   284       B         10.86839605     14.04848624     22.17340880   
   285       B          1.84187838     22.87587154     21.97398825   
   286       B         20.05223599     19.15037671     16.16946693   
   287       B         19.15037671     16.16944292     20.05223599   
   288       B         16.16944292     20.05223599     19.15037671   
   289       H         14.31440432      6.30564230      1.57106123   
   290       H          9.84903139      7.82687241      1.64656439   
   291       H         15.85275712      4.35720937      1.82309865   
   292       H         12.30540556      7.96248511      2.14703697   
   293       H         22.44391375      2.30692883      5.70188121   
   294       H         20.31817808      4.43268852      0.30189255   
   295       H         22.19187634      3.84525762      7.65031414   
   296       H         21.86798604      0.29790606      4.04501439   
   297       H         18.30915531      3.85673679      1.95873536   
   298       H          1.57108525     14.31442833      6.30564230   
   299       H          1.82312266     15.85275712      4.35718536   
   300       H          1.64656439      9.84900737      7.82684840   
   301       H          2.14701296     12.30540556      7.96248511   
   302       H         15.86423629     10.04874012      5.70586770   
   303       H         23.71310645      8.31065457      7.57481098   
   304       H         16.44018802     11.70560695      3.69682092   
   305       H         16.18815060     13.65403988      2.15846811   
   306       H          5.70188121     22.44393777      2.30692883   
   307       H          0.30189255     20.31817808      4.43266450   
   308       H          7.65031414     22.19190035      3.84528164   
   309       H          1.95875938     18.30915531      3.85673679   
   310       H          4.04501439     21.86798604      0.29790606   
   311       H          8.15076271     22.05623962      6.30165581   
   312       H         22.36843461     21.85650687      4.18062709   
   313       H          6.30564230      1.57106123     14.31440432   
   314       H          4.35718536      1.82309865     15.85275712   
   315       H          7.82687241      1.64654038      9.84900737   
   316       H          7.96248511      2.14701296     12.30540556   
   317       H         10.04876414      5.70584369     15.86423629   
   318       H         22.05626364      6.30165581      8.15076271   
   319       H          5.70586770     15.86423629     10.04876414   
   320       H         18.31314180     10.43643827      9.70059468   
   321       H         19.58231048     12.30941607     15.70436845   
   322       H         16.36468486     10.18440085      8.16224188   
   323       H         19.83429987     10.36093511     14.16599163   
   324       H         19.97000863      9.86051056     11.70961745   
   325       H          3.69682092     16.44016400     11.70563096   
   326       H          7.57481098     23.71310645      8.31065457   
   327       H          2.15849213     16.18812659     13.65406389   
   328       H         15.70432042     19.58231048     12.30939205   
   329       H          9.70057067     18.31314180     10.43643827   
   330       H         14.16596761     19.83434790     10.36093511   
   331       H          8.16221786     16.36468486     10.18440085   
   332       H         11.70959344     19.96998461      9.86048654   
   333       H         21.70807017     17.70935670     13.57858475   
   334       H         20.16974138     19.65781364     13.83064618   
   335       H         23.71709294     16.05251389     14.15451246   
   336       H         17.71334319     20.15826221     13.96623486   
   337       H          2.30692883      5.70185720     22.44393777   
   338       H          4.43266450      0.30189255     20.31815407   
   339       H          3.84528164      7.65031414     22.19187634   
   340       H          0.29790606      4.04501439     21.86798604   
   341       H          3.85673679      1.95875938     18.30915531   
   342       H          8.31067858      7.57481098     23.71310645   
   343       H         11.70560695      3.69684493     16.44016400   
   344       H         13.65406389      2.15846811     16.18812659   
   345       H         21.85650687      4.18062709     22.36843461   
   346       H          6.30165581      8.15076271     22.05626364   
   347       H         10.43643827      9.70059468     18.31314180   
   348       H         12.30939205     15.70432042     19.58231048   
   349       H         10.18437684      8.16224188     16.36468486   
   350       H         10.36093511     14.16596761     19.83437191   
   351       H          9.86048654     11.70959344     19.96998461   
   352       H         17.70935670     13.57856073     21.70809418   
   353       H         19.65778963     13.83062216     20.16974138   
   354       H         20.15826221     13.96625888     17.71336720   
   355       H         16.05248987     14.15451246     23.71709294   
   356       H          4.18060307     22.36843461     21.85648286   
   357       H         13.57856073     21.70809418     17.70935670   
   358       H         13.83062216     20.16974138     19.65781364   
   359       H         13.96623486     17.71334319     20.15826221   
   360       H         14.15451246     23.71709294     16.05248987   
   361      Tv         24.01499900      0.00000000      0.00000000   
   362      Tv          0.00000000     24.01499900      0.00000000   
   363      Tv          0.00000000      0.00000000     24.01499900   


                   THE SYSTEM IS A SOLID


                UNIT CELL TRANSLATION VECTORS

              X                Y              Z
    T1 =    24.0149990      0.0000000      0.0000000
    T2 =     0.0000000     24.0149990      0.0000000
    T3 =     0.0000000      0.0000000     24.0149990


          CARTESIAN COORDINATES 

    NO.       ATOM           X           Y           Z

     1         C         14.7794      6.1686      2.5493
     2         C         15.5620      5.0439      2.6970
     3         C         15.1336      5.6028      5.1348
     4         C         15.9512      7.4828      6.9059
     5         C         15.9112      5.1738      6.1875
     6         C         15.0245      6.9343      4.7551
     7         C         15.4555      7.9430      5.6423
     8         C         14.5830      7.1901      3.4648
     9         C         20.7832      3.4544      0.1649
    10         C         21.4656      2.7720      5.8389
    11         C         21.3180      3.5545      6.9636
    12         C         21.4126      0.8631      3.2329
    13         C         18.8743      3.4014      2.7709
    14         C         20.0584      2.7295      2.4762
    15         C         20.7408      2.0472      3.5275
    16         C         16.8310      4.1891      5.8957
    17         C         18.1194      4.8235      7.8183
    18         C         16.1967      6.1119      7.1840
    19         C         18.8801      3.1262      6.4047
    20         C         17.1091      3.9436      4.5247
    21         C         17.8276      3.9037      6.8337
    22         C         21.0282      1.2487      0.9305
    23         C         19.2599      3.0169      5.0732
    24         C         21.4592      0.3614      1.9393
    25         C         18.3727      3.4480      4.0645
    26         C         20.5867      2.5390      1.1863
    27         C         20.5502      2.5755      4.8174
    28         C          2.5494     14.7795      6.1686
    29         C          2.6970     15.5620      5.0439
    30         C          5.1349     15.1336      5.6028
    31         C          6.9059     15.9512      7.4828
    32         C          6.1875     15.9112      5.1738
    33         C          4.7551     15.0244      6.9343
    34         C          5.6423     15.4555      7.9430
    35         C          3.4648     14.5830      7.1900
    36         C         15.4619     11.8426      3.2318
    37         C         15.3143     12.9673      2.4492
    38         C          9.5583      8.7007      0.9598
    39         C         12.8706      8.7746      2.6024
    40         C         15.4089      9.2366      5.1407
    41         C         14.7370      9.5312      3.9566
    42         C         14.0547      8.4800      3.2743
    43         C         12.1156     13.8221      1.1802
    44         C         10.8273     11.8994      1.8146
    45         C         12.8764     12.4085      2.8776
    46         C          9.1299     11.1386      0.4010
    47         C         11.1054     10.5285      2.0601
    48         C         13.4865     14.0676      0.9021
    49         C         11.1775     14.1075      0.1836
    50         C         11.8239     12.8375      2.1000
    51         C          9.9075     12.1911      0.8300
    52         C         13.2562     11.0770      2.9868
    53         C         12.3690     10.0682      2.5558
    54         C         14.5465     10.8212      3.4283
    55         C          5.8389     21.4657      2.7720
    56         C          0.1649     20.7832      3.4544
    57         C          6.9636     21.3180      3.5546
    58         C          2.7709     18.8743      3.4014
    59         C          3.2329     21.4126      0.8631
    60         C          3.5275     20.7408      2.0472
    61         C          2.4763     20.0584      2.7295
    62         C          7.1840     16.1967      6.1119
    63         C          5.8956     16.8310      4.1892
    64         C          7.8183     18.1194      4.8235
    65         C          6.4048     18.8802      3.1262
    66         C          4.5247     17.1091      3.9437
    67         C          6.8338     17.8277      3.9037
    68         C          5.0732     19.2599      3.0170
    69         C          0.9305     21.0282      1.2487
    70         C          4.0645     18.3727      3.4480
    71         C          1.9393     21.4592      0.3614
    72         C          4.8175     20.5502      2.5755
    73         C          1.1863     20.5867      2.5390
    74         C          8.6061     21.2441      6.8668
    75         C          8.8814     17.6103      6.8727
    76         C          8.0639     19.4903      5.1016
    77         C          8.1038     17.1813      5.8200
    78         C          8.9906     18.9418      7.2524
    79         C          8.5595     19.9505      6.3652
    80         C         23.0552     21.5658      3.3068
    81         C         22.2004     22.8348      0.1082
    82         C         23.6140     21.1374      0.8689
    83         C         21.9549     23.1129      1.4790
    84         C          6.1686      2.5493     14.7795
    85         C          5.0439      2.6970     15.5620
    86         C          5.6028      5.1348     15.1337
    87         C          7.4828      6.9059     15.9512
    88         C          5.1738      6.1875     15.9112
    89         C          6.9343      4.7551     15.0245
    90         C          7.9430      5.6423     15.4555
    91         C          7.1900      3.4648     14.5830
    92         C         11.8426      3.2318     15.4619
    93         C          8.7007      0.9598      9.5583
    94         C         12.9673      2.4492     15.3142
    95         C          9.2366      5.1407     15.4089
    96         C          8.7746      2.6024     12.8706
    97         C          8.4800      3.2742     14.0547
    98         C          9.5312      3.9566     14.7370
    99         C         13.8221      1.1802     12.1156
   100         C         11.8994      1.8146     10.8273
   101         C         11.1386      0.4010      9.1299
   102         C         12.4085      2.8776     12.8764
   103         C         14.0676      0.9021     13.4865
   104         C         10.5285      2.0601     11.1054
   105         C         12.8375      2.1000     11.8236
   106         C         12.1914      0.8300      9.9075
   107         C         14.1075      0.1839     11.1775
   108         C         11.0770      2.9868     13.2562
   109         C         10.0682      2.5558     12.3689
   110         C         10.8212      3.4283     14.5465
   111         C         21.2441      6.8668      8.6061
   112         C         17.6103      6.8727      8.8813
   113         C         19.4903      5.1016      8.0638
   114         C         17.1812      5.8202      8.1038
   115         C         18.9418      7.2524      8.9906
   116         C         19.9505      6.3652      8.5595
   117         C          3.2318     15.4619     11.8426
   118         C          2.4492     15.3143     12.9674
   119         C          0.9598      9.5583      8.7007
   120         C          2.6024     12.8706      8.7746
   121         C          5.1407     15.4089      9.2366
   122         C          3.9566     14.7370      9.5312
   123         C          3.2743     14.0547      8.4800
   124         C          1.8146     10.8273     11.8994
   125         C          1.1802     12.1156     13.8221
   126         C          2.8776     12.8764     12.4085
   127         C          0.4010      9.1299     11.1386
   128         C          0.9021     13.4865     14.0676
   129         C          2.0601     11.1054     10.5285
   130         C          0.8300      9.9075     12.1914
   131         C          0.1836     11.1775     14.1075
   132         C          2.1000     11.8239     12.8375
   133         C          2.9868     13.2562     11.0770
   134         C          2.5558     12.3689     10.0682
   135         C          3.4283     14.5465     10.8212
   136         C         21.5387      8.0509      9.2780
   137         C         18.1761      9.4582      9.2356
   138         C         20.5606     12.1724     15.2393
   139         C         23.8501      8.7757      8.5531
   140         C         17.0514      9.3105      8.4530
   141         C         20.7082     11.0477     14.4567
   142         C         23.1519     15.2404     14.6099
   143         C         20.7822      9.4051     11.1444
   144         C         20.4875      8.7333      9.9603
   145         C         21.9678     15.5350     15.2818
   146         C         23.9069     10.1929     13.1877
   147         C         23.1461     11.6065     14.8851
   148         C         22.5360      9.9474     12.9096
   149         C         22.7663     12.9380     14.9943
   150         C         23.0845      9.0207     10.7588
   151         C         23.6535     13.9468     14.5633
   152         C         22.0758      9.4517     11.6460
   153         C         19.1976      8.5427      9.4321
   154         C         21.4760     13.1938     15.4358
   155         C         22.8287      8.5792      9.4685
   156         C         21.2855     14.4838     15.9641
   157         C          9.2780     21.5387      8.0509
   158         C          8.5531     23.8501      8.7757
   159         C          9.2355     18.1761      9.4582
   160         C         15.2393     20.5606     12.1724
   161         C          8.4530     17.0514      9.3105
   162         C         14.4567     20.7082     11.0477
   163         C         11.1444     20.7821      9.4051
   164         C         14.6099     23.1519     15.2404
   165         C          9.9603     20.4875      8.7333
   166         C         15.2817     21.9678     15.5350
   167         C         13.1877     23.9069     10.1929
   168         C         14.8851     23.1461     11.6065
   169         C         12.9096     22.5360      9.9474
   170         C         10.7588     23.0845      9.0207
   171         C         14.9943     22.7663     12.9380
   172         C         11.6460     22.0757      9.4517
   173         C         14.5633     23.6535     13.9468
   174         C          9.4685     22.8287      8.5792
   175         C          9.4320     19.1975      8.5427
   176         C         15.4358     21.4760     13.1938
   177         C         15.9641     21.2855     14.4837
   178         C         21.2430     17.8464     14.5569
   179         C         20.4605     18.9711     14.7045
   180         C         17.1482     20.6136     14.7784
   181         C         21.4395     16.8250     15.4723
   182         C          3.4544      0.1649     20.7832
   183         C          2.7720      5.8389     21.4657
   184         C          3.5545      6.9636     21.3180
   185         C          0.8631      3.2329     21.4126
   186         C          3.4014      2.7709     18.8743
   187         C          2.7295      2.4763     20.0584
   188         C          2.0472      3.5275     20.7408
   189         C          4.8236      7.8184     18.1193
   190         C          6.1118      7.1840     16.1967
   191         C          4.1891      5.8957     16.8310
   192         C          3.1261      6.4047     18.8802
   193         C          3.9436      4.5247     17.1091
   194         C          3.9037      6.8337     17.8273
   195         C          1.2487      0.9305     21.0282
   196         C          3.0169      5.0732     19.2599
   197         C          0.3614      1.9393     21.4592
   198         C          3.4480      4.0645     18.3727
   199         C          2.5390      1.1863     20.5867
   200         C          2.5754      4.8175     20.5502
   201         C         21.5658      3.3067     23.0551
   202         C         22.8348      0.1081     22.2004
   203         C         21.1374      0.8689     23.6140
   204         C         23.1129      1.4790     21.9549
   205         C          6.8668      8.6061     21.2441
   206         C          6.8726      8.8814     17.6103
   207         C          5.1016      8.0638     19.4903
   208         C          5.8200      8.1038     17.1813
   209         C          7.2524      8.9906     18.9418
   210         C          6.3652      8.5595     19.9505
   211         C          8.0509      9.2780     21.5388
   212         C          8.7757      8.5531     23.8501
   213         C         12.1724     15.2393     20.5606
   214         C          9.4582      9.2355     18.1761
   215         C         11.0477     14.4567     20.7082
   216         C          9.3105      8.4530     17.0514
   217         C          9.4051     11.1444     20.7821
   218         C         15.2404     14.6099     23.1519
   219         C         15.5350     15.2818     21.9678
   220         C          8.7333      9.9603     20.4875
   221         C         10.1929     13.1877     23.9069
   222         C         11.6065     14.8851     23.1461
   223         C          9.9474     12.9096     22.5360
   224         C          9.0207     10.7588     23.0845
   225         C         12.9380     14.9943     22.7663
   226         C          9.4517     11.6460     22.0757
   227         C         13.9468     14.5633     23.6535
   228         C          8.5792      9.4685     22.8287
   229         C         13.1938     15.4358     21.4760
   230         C          8.5427      9.4320     19.1976
   231         C         14.4837     15.9641     21.2855
   232         C         17.8464     14.5568     21.2431
   233         C         18.9711     14.7045     20.4605
   234         C         20.6136     14.7784     17.1482
   235         C         16.8249     15.4723     21.4396
   236         C          3.3067     23.0552     21.5658
   237         C          0.1081     22.2004     22.8348
   238         C          0.8689     23.6140     21.1374
   239         C          1.4790     21.9549     23.1129
   240         C         14.5568     21.2430     17.8464
   241         C         14.7045     20.4605     18.9711
   242         C         14.7784     17.1482     20.6136
   243         C         15.4723     21.4395     16.8249
   244         C         19.1914     19.8258     17.9032
   245         C         17.9032     19.1915     19.8259
   246         C         19.8259     17.9032     19.1915
   247         C         18.4122     17.1423     20.8889
   248         C         20.8889     18.4122     17.1424
   249         C         17.1423     20.8889     18.4122
   250         C         16.5322     18.9134     20.0713
   251         C         20.0713     16.5322     18.9134
   252         C         18.9134     20.0714     16.5322
   253         C         23.1850     21.9150     23.8313
   254         C         20.1113     18.8412     18.1950
   255         C         23.8311     23.1851     21.9150
   256         C         18.1951     20.1113     18.8412
   257         C         21.9150     23.8312     23.1850
   258         C         18.8412     18.1951     20.1113
   259         C         17.0807     16.7626     20.9981
   260         C         20.9981     17.0807     16.7626
   261         C         16.7626     20.9981     17.0807
   262         C         16.0720     17.6498     20.5670
   263         C         20.5670     16.0720     17.6498
   264         C         17.6498     20.5670     16.0720
   265         B         15.9702      4.8646      4.1619
   266         B         19.8528      3.9628      7.1429
   267         B          4.1621     15.9703      4.8646
   268         B         13.8491     13.1466      2.0410
   269         B          9.9665     10.1659      1.1391
   270         B          7.1429     19.8528      3.9628
   271         B          8.0447     16.8721      7.8454
   272         B         22.8759     21.9740      1.8416
   273         B          4.8646      4.1620     15.9703
   274         B         10.1656      1.1391      9.9665
   275         B         13.1466      2.0410     13.8494
   276         B         16.8721      7.8453      8.0447
   277         B          2.0410     13.8491     13.1466
   278         B          1.1392      9.9665     10.1656
   279         B         22.1734     10.8684     14.0485
   280         B         14.0485     22.1731     10.8684
   281         B          3.9627      7.1429     19.8532
   282         B         21.9740      1.8418     22.8759
   283         B          7.8455      8.0447     16.8721
   284         B         10.8684     14.0485     22.1734
   285         B          1.8419     22.8759     21.9740
   286         B         20.0522     19.1504     16.1695
   287         B         19.1504     16.1694     20.0522
   288         B         16.1694     20.0522     19.1504
   289         H         14.3144      6.3056      1.5711
   290         H          9.8490      7.8269      1.6466
   291         H         15.8528      4.3572      1.8231
   292         H         12.3054      7.9625      2.1470
   293         H         22.4439      2.3069      5.7019
   294         H         20.3182      4.4327      0.3019
   295         H         22.1919      3.8453      7.6503
   296         H         21.8680      0.2979      4.0450
   297         H         18.3092      3.8567      1.9587
   298         H          1.5711     14.3144      6.3056
   299         H          1.8231     15.8528      4.3572
   300         H          1.6466      9.8490      7.8268
   301         H          2.1470     12.3054      7.9625
   302         H         15.8642     10.0487      5.7059
   303         H         23.7131      8.3107      7.5748
   304         H         16.4402     11.7056      3.6968
   305         H         16.1882     13.6540      2.1585
   306         H          5.7019     22.4439      2.3069
   307         H          0.3019     20.3182      4.4327
   308         H          7.6503     22.1919      3.8453
   309         H          1.9588     18.3092      3.8567
   310         H          4.0450     21.8680      0.2979
   311         H          8.1508     22.0562      6.3017
   312         H         22.3684     21.8565      4.1806
   313         H          6.3056      1.5711     14.3144
   314         H          4.3572      1.8231     15.8528
   315         H          7.8269      1.6465      9.8490
   316         H          7.9625      2.1470     12.3054
   317         H         10.0488      5.7058     15.8642
   318         H         22.0563      6.3017      8.1508
   319         H          5.7059     15.8642     10.0488
   320         H         18.3131     10.4364      9.7006
   321         H         19.5823     12.3094     15.7044
   322         H         16.3647     10.1844      8.1622
   323         H         19.8343     10.3609     14.1660
   324         H         19.9700      9.8605     11.7096
   325         H          3.6968     16.4402     11.7056
   326         H          7.5748     23.7131      8.3107
   327         H          2.1585     16.1881     13.6541
   328         H         15.7043     19.5823     12.3094
   329         H          9.7006     18.3131     10.4364
   330         H         14.1660     19.8343     10.3609
   331         H          8.1622     16.3647     10.1844
   332         H         11.7096     19.9700      9.8605
   333         H         21.7081     17.7094     13.5786
   334         H         20.1697     19.6578     13.8306
   335         H         23.7171     16.0525     14.1545
   336         H         17.7133     20.1583     13.9662
   337         H          2.3069      5.7019     22.4439
   338         H          4.4327      0.3019     20.3182
   339         H          3.8453      7.6503     22.1919
   340         H          0.2979      4.0450     21.8680
   341         H          3.8567      1.9588     18.3092
   342         H          8.3107      7.5748     23.7131
   343         H         11.7056      3.6968     16.4402
   344         H         13.6541      2.1585     16.1881
   345         H         21.8565      4.1806     22.3684
   346         H          6.3017      8.1508     22.0563
   347         H         10.4364      9.7006     18.3131
   348         H         12.3094     15.7043     19.5823
   349         H         10.1844      8.1622     16.3647
   350         H         10.3609     14.1660     19.8344
   351         H          9.8605     11.7096     19.9700
   352         H         17.7094     13.5786     21.7081
   353         H         19.6578     13.8306     20.1697
   354         H         20.1583     13.9663     17.7134
   355         H         16.0525     14.1545     23.7171
   356         H          4.1806     22.3684     21.8565
   357         H         13.5786     21.7081     17.7094
   358         H         13.8306     20.1697     19.6578
   359         H         13.9662     17.7133     20.1583
   360         H         14.1545     23.7171     16.0525

 General Reference for PM7:
 "Optimization of Parameters for Semiempirical Methods VI: More Modifications to the 
 NDDO Approximations and Re-optimization of Parameters", J. J. P. Stewart, J. Mol. Mod., 1:32, 19 (2013)
 https://link.springer.com/article/10.1007/s00894-012-1667-x

           Empirical Formula: C264 H72 B24  =   360 atoms



      RHF CALCULATION, NO. OF DOUBLY OCCUPIED LEVELS = 600


 -------------------------------------------------------------------------------
 PM7 CHARGE=0 NOOPT




     NO PARAMETERS MARKED FOR OPTIMIZATION, SO 1SCF WAS USED  
     SCF FIELD WAS ACHIEVED                                   


                              PM7 CALCULATION
                                                       MOPAC v22.1.0 Linux
                                                       Thu Feb  1 11:54:14 2024




          FINAL HEAT OF FORMATION =       3689.61673 KCAL/MOL =   15437.35639 KJ/MOL
          H.o.F. per unit cell    =        153.73403 KCAL, for 24 unit cells, unit cell = C11 H3 B1



          IONIZATION POTENTIAL    =          7.893806 EV
          HOMO LUMO ENERGIES (EV) =         -7.894 -4.284
          NO. OF FILLED LEVELS    =        600
          MOLECULAR WEIGHT        =       3502.9128

                   THE SYSTEM IS A SOLID


                UNIT CELL TRANSLATION VECTORS

              X                Y              Z
    T1 =    24.0149990      0.0000000      0.0000000
    T2 =     0.0000000     24.0149990      0.0000000
    T3 =     0.0000000      0.0000000     24.0149990

          VOLUME OF UNIT CELL     =      13849.934 CUBIC ANGSTROMS

          DENSITY                 =          0.420 GRAMS/CC
                              A   =         24.015 ANGSTROMS
                              B   =         24.015 ANGSTROMS
                              C   =         24.015 ANGSTROMS
                            ALPHA =         90.000 DEGREES
                            BETA  =         90.000 DEGREES
                            GAMMA =         90.000 DEGREES



          SCF CALCULATIONS        =          1

          WALL-CLOCK TIME         =          1 MINUTE AND 45.180 SECONDS
          COMPUTATION TIME        =          1 MINUTE AND 45.152 SECONDS




   ATOM   CHEMICAL          X               Y               Z
  NUMBER   SYMBOL      (ANGSTROMS)     (ANGSTROMS)     (ANGSTROMS)

     1       C         14.77943076      6.16861272      2.54933623   
     2       C         15.56203155      5.04391827      2.69698045   
     3       C         15.13362798      5.60277131      5.13483906   
     4       C         15.95117059      7.48278551      6.90589720   
     5       C         15.91120963      5.17376737      6.18751252   
     6       C         15.02445579      6.93425892      4.75506586   
     7       C         15.45547700      7.94300895      5.64227599   
     8       C         14.58296405      7.19006669      3.46478800   
     9       C         20.78320452      3.45441352      0.16486297   
    10       C         21.46563875      2.77195527      5.83888678   
    11       C         21.31801855      3.55453205      6.96358123   
    12       C         21.41263765      0.86307505      3.23285114   
    13       C         18.87432430      3.40138840      2.77087460   
    14       C         20.05843185      2.72952077      2.47623458   
    15       C         20.74077002      2.04718260      3.52749116   
    16       C         16.83103212      4.18912840      5.89565824   
    17       C         18.11936478      4.82350861      7.81832307   
    18       C         16.19665191      6.11188929      7.18399089   
    19       C         18.88013593      3.12615249      6.40472819   
    20       C         17.10910180      3.94364708      4.52471399   
    21       C         17.82763057      3.90373415      6.83373213   
    22       C         21.02818153      1.24865987      0.93050917   
    23       C         19.25990912      3.01693228      5.07321657   
    24       C         21.45920273      0.36144975      1.93925920   
    25       C         18.37269900      3.44795348      4.06449055   
    26       C         20.58671380      2.53896175      1.18629292   
    27       C         20.55021100      2.57546455      4.81743281   
    28       C          2.54936025     14.77945477      6.16861272   
    29       C          2.69698045     15.56203155      5.04389425   
    30       C          5.13486307     15.13362798      5.60277131   
    31       C          6.90589720     15.95117059      7.48276149   
    32       C          6.18748851     15.91120963      5.17376737   
    33       C          4.75508988     15.02443178      6.93425892   
    34       C          5.64230000     15.45545298      7.94300895   
    35       C          3.46478800     14.58296405      7.19004267   
    36       C         15.46191302     11.84263653      3.23179448   
    37       C         15.31426880     12.96733098      2.44921770   
    38       C          9.55828180      8.70073020      0.95983148   
    39       C         12.87057455      8.77464836      2.60236135   
    40       C         15.40888790      9.23660089      5.14067470   
    41       C         14.73702027      9.53124091      3.95656715   
    42       C         14.05470612      8.48000834      3.27425299   
    43       C         12.11561503     13.82209684      1.18024114   
    44       C         10.82725836     11.89938397      1.81457332   
    45       C         12.87641019     12.40847794      2.87759726   
    46       C          9.12990224     11.13861282      0.40097844   
    47       C         11.10537606     10.52848776      2.06007866   
    48       C         13.48653526     14.06757816      0.90214745   
    49       C         11.17749310     14.10753912      0.18361868   
    50       C         11.82388082     12.83750590      2.10001560   
    51       C          9.90748390     12.19111818      0.83000640   
    52       C         13.25618339     11.07696632      2.98681747   
    53       C         12.36897326     10.06824030      2.55579627   
    54       C         14.54646125     10.82118256      3.42830921   
    55       C          5.83888678     21.46566277      2.77195527   
    56       C          0.16486297     20.78320452      3.45438950   
    57       C          6.96358123     21.31801855      3.55455606   
    58       C          2.77089861     18.87432430      3.40138840   
    59       C          3.23287515     21.41263765      0.86307505   
    60       C          3.52749116     20.74077002      2.04718260   
    61       C          2.47625859     20.05843185      2.72952077   
    62       C          7.18399089     16.19665191      6.11186528   
    63       C          5.89563422     16.83100811      4.18915241   
    64       C          7.81834709     18.11938879      4.82350861   
    65       C          6.40475220     18.88015994      3.12615249   
    66       C          4.52473801     17.10912581      3.94367109   
    67       C          6.83375615     17.82765458      3.90373415   
    68       C          5.07324058     19.25993314      3.01695629   
    69       C          0.93053318     21.02818153      1.24865987   
    70       C          4.06449055     18.37272301      3.44797750   
    71       C          1.93925920     21.45920273      0.36144975   
    72       C          4.81745683     20.55021100      2.57546455   
    73       C          1.18631694     20.58671380      2.53896175   
    74       C          8.60611110     21.24410039      6.86682480   
    75       C          8.88137102     17.61027081      6.87266044   
    76       C          8.06385242     19.49028501      5.10162631   
    77       C          8.10378937     17.18126687      5.82003501   
    78       C          8.99056722     18.94175842      7.25243364   
    79       C          8.55954602     19.95050845      6.36522351   
    80       C         23.05516752     21.56578130      3.30676930   
    81       C         22.20042568     22.83475786      0.10816356   
    82       C         23.61402056     21.13740174      0.86888668   
    83       C         21.95492034     23.11285155      1.47903576   
    84       C          6.16861272      2.54933623     14.77945477   
    85       C          5.04391827      2.69698045     15.56203155   
    86       C          5.60277131      5.13483906     15.13365199   
    87       C          7.48278551      6.90587319     15.95117059   
    88       C          5.17376737      6.18753654     15.91123365   
    89       C          6.93425892      4.75506586     15.02445579   
    90       C          7.94300895      5.64227599     15.45547700   
    91       C          7.19004267      3.46478800     14.58296405   
    92       C         11.84263653      3.23179448     15.46188900   
    93       C          8.70073020      0.95983148      9.55828180   
    94       C         12.96733098      2.44921770     15.31424479   
    95       C          9.23660089      5.14067470     15.40888790   
    96       C          8.77462435      2.60236135     12.87057455   
    97       C          8.47998433      3.27422898     14.05468210   
    98       C          9.53124091      3.95656715     14.73699626   
    99       C         13.82212085      1.18019311     12.11556700   
   100       C         11.89943200      1.81462135     10.82730639   
   101       C         11.13858881      0.40097844      9.12985421   
   102       C         12.40847794      2.87762127     12.87641019   
   103       C         14.06757816      0.90212344     13.48651124   
   104       C         10.52846374      2.06007866     11.10535205   
   105       C         12.83745787      2.10001560     11.82361665   
   106       C         12.19138235      0.82995837      9.90748390   
   107       C         14.10751510      0.18390686     11.17754113   
   108       C         11.07696632      2.98681747     13.25615937   
   109       C         10.06824030      2.55577225     12.36894925   
   110       C         10.82118256      3.42828520     14.54646125   
   111       C         21.24410039      6.86682480      8.60611110   
   112       C         17.61027081      6.87266044      8.88134701   
   113       C         19.49026099      5.10162631      8.06382841   
   114       C         17.18124285      5.82015508      8.10376535   
   115       C         18.94175842      7.25243364      8.99056722   
   116       C         19.95050845      6.36522351      8.55954602   
   117       C          3.23179448     15.46188900     11.84263653   
   118       C          2.44921770     15.31426880     12.96735500   
   119       C          0.95983148      9.55828180      8.70070618   
   120       C          2.60236135     12.87057455      8.77464836   
   121       C          5.14067470     15.40888790      9.23660089   
   122       C          3.95656715     14.73702027      9.53124091   
   123       C          3.27425299     14.05468210      8.48000834   
   124       C          1.81464537     10.82725836     11.89938397   
   125       C          1.18024114     12.11563904     13.82207282   
   126       C          2.87762127     12.87638618     12.40847794   
   127       C          0.40100245      9.12985421     11.13856479   
   128       C          0.90212344     13.48651124     14.06757816   
   129       C          2.06010267     11.10535205     10.52846374   
   130       C          0.82998238      9.90745988     12.19135833   
   131       C          0.18359467     11.17749310     14.10751510   
   132       C          2.10003962     11.82388082     12.83750590   
   133       C          2.98681747     13.25615937     11.07696632   
   134       C          2.55579627     12.36894925     10.06824030   
   135       C          3.42830921     14.54646125     10.82118256   
   136       C         21.53874041      8.05093235      9.27800274   
   137       C         18.17611222      9.45816327      9.23556824   
   138       C         20.56056147     12.17238648     15.23931799   
   139       C         23.85013603      8.77570502      8.55308598   
   140       C         17.05141777      9.31054307      8.45296745   
   141       C         20.70818167     11.04766802     14.45671720   
   142       C         23.15192395     15.24035064     14.60986085   
   143       C         20.78217188      9.40513815     11.14444847   
   144       C         20.48750784      8.73327052      9.96034091   
   145       C         21.96781640     15.53499066     15.28175249   
   146       C         23.90690749     10.19287815     13.18774064   
   147       C         23.14608831     11.60652106     14.88507274   
   148       C         22.53598726      9.94742084     12.90964695   
   149       C         22.76631511     12.93800867     14.99429296   
   150       C         23.08448983      9.02068203     10.75883963   
   151       C         23.65352524     13.94675870     14.56327175   
   152       C         22.07576382      9.45172725     11.64604975   
   153       C         19.19756619      8.54271150      9.43205896   
   154       C         21.47603725     13.19381644     15.43580871   
   155       C         22.82870608      8.57921430      9.46853775   
   156       C         21.28547823     14.48375809     15.96406665   
   157       C          9.27797873     21.53874041      8.05093235   
   158       C          8.55308598     23.85013603      8.77568101   
   159       C          9.23554423     18.17611222      9.45816327   
   160       C         15.23929398     20.56058548     12.17236247   
   161       C          8.45296745     17.05141777      9.31051905   
   162       C         14.45671720     20.70822970     11.04766802   
   163       C         11.14442445     20.78214786      9.40513815   
   164       C         14.60986085     23.15192395     15.24035064   
   165       C          9.96031690     20.48750784      8.73327052   
   166       C         15.28172848     21.96781640     15.53499066   
   167       C         13.18769261     23.90693150     10.19285413   
   168       C         14.88512077     23.14608831     11.60652106   
   169       C         12.90964695     22.53598726      9.94742084   
   170       C         10.75883963     23.08448983      9.02068203   
   171       C         14.99431697     22.76631511     12.93800867   
   172       C         11.64604975     22.07573980      9.45170323   
   173       C         14.56329577     23.65352524     13.94675870   
   174       C          9.46853775     22.82868206      8.57919029   
   175       C          9.43203495     19.19754217      8.54271150   
   176       C         15.43578470     21.47603725     13.19379242   
   177       C         15.96406665     21.28547823     14.48373408   
   178       C         21.24304373     17.84638628     14.55685975   
   179       C         20.46046695     18.97108073     14.70450396   
   180       C         17.14817420     20.61361060     14.77839811   
   181       C         21.43953445     16.82495633     15.47228750   
   182       C          3.45441352      0.16486297     20.78318051   
   183       C          2.77195527      5.83888678     21.46566277   
   184       C          3.55453205      6.96358123     21.31801855   
   185       C          0.86307505      3.23287515     21.41263765   
   186       C          3.40138840      2.77089861     18.87432430   
   187       C          2.72952077      2.47625859     20.05843185   
   188       C          2.04718260      3.52751517     20.74077002   
   189       C          4.82355664      7.81837110     18.11931675   
   190       C          6.11184126      7.18396688     16.19665191   
   191       C          4.18912840      5.89565824     16.83103212   
   192       C          3.12612848      6.40472819     18.88015994   
   193       C          3.94364708      4.52471399     17.10912581   
   194       C          3.90373415      6.83368410     17.82734239   
   195       C          1.24865987      0.93053318     21.02818153   
   196       C          3.01693228      5.07324058     19.25990912   
   197       C          0.36144975      1.93925920     21.45920273   
   198       C          3.44795348      4.06449055     18.37272301   
   199       C          2.53896175      1.18631694     20.58671380   
   200       C          2.57544054      4.81745683     20.55021100   
   201       C         21.56578130      3.30674529     23.05514350   
   202       C         22.83480589      0.10809151     22.20040166   
   203       C         21.13737773      0.86891069     23.61402056   
   204       C         23.11287556      1.47903576     21.95492034   
   205       C          6.86682480      8.60611110     21.24410039   
   206       C          6.87263643      8.88137102     17.61027081   
   207       C          5.10160230      8.06382841     19.49026099   
   208       C          5.81996296      8.10376535     17.18126687   
   209       C          7.25240962      8.99056722     18.94178243   
   210       C          6.36519950      8.55954602     19.95050845   
   211       C          8.05093235      9.27797873     21.53876442   
   212       C          8.77570502      8.55308598     23.85013603   
   213       C         12.17236247     15.23929398     20.56058548   
   214       C          9.45816327      9.23554423     18.17611222   
   215       C         11.04766802     14.45671720     20.70822970   
   216       C          9.31049504      8.45296745     17.05141777   
   217       C          9.40513815     11.14442445     20.78214786   
   218       C         15.24035064     14.60986085     23.15192395   
   219       C         15.53499066     15.28175249     21.96781640   
   220       C          8.73327052      9.96031690     20.48750784   
   221       C         10.19292618     13.18774064     23.90685946   
   222       C         11.60649705     14.88512077     23.14611232   
   223       C          9.94742084     12.90964695     22.53598726   
   224       C          9.02068203     10.75883963     23.08448983   
   225       C         12.93800867     14.99434099     22.76633913   
   226       C          9.45170323     11.64602574     22.07573980   
   227       C         13.94675870     14.56329577     23.65354925   
   228       C          8.57921430      9.46853775     22.82870608   
   229       C         13.19379242     15.43580871     21.47603725   
   230       C          8.54271150      9.43203495     19.19756619   
   231       C         14.48373408     15.96406665     21.28547823   
   232       C         17.84636227     14.55683573     21.24306774   
   233       C         18.97108073     14.70447995     20.46046695   
   234       C         20.61361060     14.77839811     17.14817420   
   235       C         16.82493231     15.47228750     21.43955846   
   236       C          3.30674529     23.05516752     21.56578130   
   237       C          0.10809151     22.20040166     22.83478187   
   238       C          0.86891069     23.61402056     21.13737773   
   239       C          1.47903576     21.95492034     23.11285155   
   240       C         14.55683573     21.24304373     17.84638628   
   241       C         14.70447995     20.46046695     18.97108073   
   242       C         14.77839811     17.14817420     20.61361060   
   243       C         15.47228750     21.43953445     16.82493231   
   244       C         19.19144236     19.82584659     17.90315774   
   245       C         17.90315774     19.19146638     19.82587060   
   246       C         19.82587060     17.90315774     19.19146638   
   247       C         18.41222769     17.14233856     20.88887052   
   248       C         20.88887052     18.41222769     17.14236257   
   249       C         17.14233856     20.88887052     18.41222769   
   250       C         16.53221349     18.91339670     20.07132791   
   251       C         20.07132791     16.53221349     18.91339670   
   252       C         18.91337269     20.07135192     16.53221349   
   253       C         23.18501662     21.91498340     23.83133229   
   254       C         20.11126485     18.84120762     18.19503604   
   255       C         23.83114017     23.18506465     21.91498340   
   256       C         18.19506005     20.11126485     18.84120762   
   257       C         21.91498340     23.83118820     23.18504063   
   258       C         18.84120762     18.19506005     20.11126485   
   259       C         17.08074008     16.76258938     20.99806672   
   260       C         20.99806672     17.08074008     16.76258938   
   261       C         16.76258938     20.99806672     17.08074008   
   262       C         16.07199005     17.64979950     20.56704552   
   263       C         20.56702150     16.07199005     17.64979950   
   264       C         17.64977549     20.56704552     16.07199005   
   265       B         15.97023850      4.86462229      4.16194342   
   266       B         19.85283945      3.96276301      7.14285320   
   267       B          4.16206349     15.97026251      4.86462229   
   268       B         13.84911371     13.14660295      2.04098674   
   269       B          9.96651276     10.16588529      1.13910345   
   270       B          7.14287721     19.85281543      3.96278703   
   271       B          8.04473649     16.87212179      7.84543601   
   272       B         22.87587154     21.97403628      1.84159020   
   273       B          4.86462229      4.16196743     15.97026251   
   274       B         10.16557309      1.13912746      9.96648875   
   275       B         13.14662696      2.04098674     13.84940189   
   276       B         16.87212179      7.84531593      8.04471247   
   277       B          2.04098674     13.84906568     13.14660295   
   278       B          1.13915148      9.96651276     10.16562112   
   279       B         22.17343282     10.86839605     14.04846222   
   280       B         14.04851025     22.17307259     10.86837204   
   281       B          3.96273900      7.14287721     19.85317566   
   282       B         21.97401226      1.84180633     22.87587154   
   283       B          7.84553207      8.04473649     16.87212179   
   284       B         10.86839605     14.04848624     22.17340880   
   285       B          1.84187838     22.87587154     21.97398825   
   286       B         20.05223599     19.15037671     16.16946693   
   287       B         19.15037671     16.16944292     20.05223599   
   288       B         16.16944292     20.05223599     19.15037671   
   289       H         14.31440432      6.30564230      1.57106123   
   290       H          9.84903139      7.82687241      1.64656439   
   291       H         15.85275712      4.35720937      1.82309865   
   292       H         12.30540556      7.96248511      2.14703697   
   293       H         22.44391375      2.30692883      5.70188121   
   294       H         20.31817808      4.43268852      0.30189255   
   295       H         22.19187634      3.84525762      7.65031414   
   296       H         21.86798604      0.29790606      4.04501439   
   297       H         18.30915531      3.85673679      1.95873536   
   298       H          1.57108525     14.31442833      6.30564230   
   299       H          1.82312266     15.85275712      4.35718536   
   300       H          1.64656439      9.84900737      7.82684840   
   301       H          2.14701296     12.30540556      7.96248511   
   302       H         15.86423629     10.04874012      5.70586770   
   303       H         23.71310645      8.31065457      7.57481098   
   304       H         16.44018802     11.70560695      3.69682092   
   305       H         16.18815060     13.65403988      2.15846811   
   306       H          5.70188121     22.44393777      2.30692883   
   307       H          0.30189255     20.31817808      4.43266450   
   308       H          7.65031414     22.19190035      3.84528164   
   309       H          1.95875938     18.30915531      3.85673679   
   310       H          4.04501439     21.86798604      0.29790606   
   311       H          8.15076271     22.05623962      6.30165581   
   312       H         22.36843461     21.85650687      4.18062709   
   313       H          6.30564230      1.57106123     14.31440432   
   314       H          4.35718536      1.82309865     15.85275712   
   315       H          7.82687241      1.64654038      9.84900737   
   316       H          7.96248511      2.14701296     12.30540556   
   317       H         10.04876414      5.70584369     15.86423629   
   318       H         22.05626364      6.30165581      8.15076271   
   319       H          5.70586770     15.86423629     10.04876414   
   320       H         18.31314180     10.43643827      9.70059468   
   321       H         19.58231048     12.30941607     15.70436845   
   322       H         16.36468486     10.18440085      8.16224188   
   323       H         19.83429987     10.36093511     14.16599163   
   324       H         19.97000863      9.86051056     11.70961745   
   325       H          3.69682092     16.44016400     11.70563096   
   326       H          7.57481098     23.71310645      8.31065457   
   327       H          2.15849213     16.18812659     13.65406389   
   328       H         15.70432042     19.58231048     12.30939205   
   329       H          9.70057067     18.31314180     10.43643827   
   330       H         14.16596761     19.83434790     10.36093511   
   331       H          8.16221786     16.36468486     10.18440085   
   332       H         11.70959344     19.96998461      9.86048654   
   333       H         21.70807017     17.70935670     13.57858475   
   334       H         20.16974138     19.65781364     13.83064618   
   335       H         23.71709294     16.05251389     14.15451246   
   336       H         17.71334319     20.15826221     13.96623486   
   337       H          2.30692883      5.70185720     22.44393777   
   338       H          4.43266450      0.30189255     20.31815407   
   339       H          3.84528164      7.65031414     22.19187634   
   340       H          0.29790606      4.04501439     21.86798604   
   341       H          3.85673679      1.95875938     18.30915531   
   342       H          8.31067858      7.57481098     23.71310645   
   343       H         11.70560695      3.69684493     16.44016400   
   344       H         13.65406389      2.15846811     16.18812659   
   345       H         21.85650687      4.18062709     22.36843461   
   346       H          6.30165581      8.15076271     22.05626364   
   347       H         10.43643827      9.70059468     18.31314180   
   348       H         12.30939205     15.70432042     19.58231048   
   349       H         10.18437684      8.16224188     16.36468486   
   350       H         10.36093511     14.16596761     19.83437191   
   351       H          9.86048654     11.70959344     19.96998461   
   352       H         17.70935670     13.57856073     21.70809418   
   353       H         19.65778963     13.83062216     20.16974138   
   354       H         20.15826221     13.96625888     17.71336720   
   355       H         16.05248987     14.15451246     23.71709294   
   356       H          4.18060307     22.36843461     21.85648286   
   357       H         13.57856073     21.70809418     17.70935670   
   358       H         13.83062216     20.16974138     19.65781364   
   359       H         13.96623486     17.71334319     20.15826221   
   360       H         14.15451246     23.71709294     16.05248987   
   361      Tv         24.01499900      0.00000000      0.00000000   
   362      Tv          0.00000000     24.01499900      0.00000000   
   363      Tv          0.00000000      0.00000000     24.01499900   

                             CARTESIAN COORDINATES

   1    C       14.779430760     6.168612718     2.549336234
   2    C       15.562031547     5.043918270     2.696980448
   3    C       15.133627980     5.602771312     5.134839056
   4    C       15.951170591     7.482785508     6.905897202
   5    C       15.911209632     5.173767370     6.187512522
   6    C       15.024455794     6.934258916     4.755065862
   7    C       15.455476996     7.943008949     5.642275985
   8    C       14.582964053     7.190066686     3.464787996
   9    C       20.783204525     3.454413516     0.164862968
  10    C       21.465638751     2.771955275     5.838886782
  11    C       21.318018552     3.554532047     6.963581230
  12    C       21.412637648     0.863075049     3.232851135
  13    C       18.874324299     3.401388398     2.770874600
  14    C       20.058431855     2.729520771     2.476234577
  15    C       20.740770021     2.047182605     3.527491158
  16    C       16.831032124     4.189128396     5.895658240
  17    C       18.119364775     4.823508609     7.818323074
  18    C       16.196651911     6.111889290     7.183990891
  19    C       18.880135929     3.126152495     6.404728188
  20    C       17.109101798     3.943647076     4.524713992
  21    C       17.827630568     3.903734147     6.833732130
  22    C       21.028181529     1.248659873     0.930509166
  23    C       19.259909123     3.016932279     5.073216569
  24    C       21.459202731     0.361449750     1.939259199
  25    C       18.372699000     3.447953481     4.064490551
  26    C       20.586713803     2.538961754     1.186292921
  27    C       20.550211004     2.575464553     4.817432814
  28    C        2.549360249    14.779454775     6.168612718
  29    C        2.696980448    15.562031547     5.043894255
  30    C        5.134863071    15.133627980     5.602771312
  31    C        6.905897202    15.951170591     7.482761493
  32    C        6.187488507    15.911209632     5.173767370
  33    C        4.755089877    15.024431779     6.934258916
  34    C        5.642300000    15.455452981     7.943008949
  35    C        3.464787996    14.582964053     7.190042671
  36    C       15.461913016    11.842636532     3.231794475
  37    C       15.314268802    12.967330980     2.449217703
  38    C        9.558281797     8.700730198     0.959831480
  39    C       12.870574549     8.774648365     2.602361352
  40    C       15.408887898     9.236600885     5.140674701
  41    C       14.737020271     9.531240908     3.956567145
  42    C       14.054706120     8.480008342     3.274252994
  43    C       12.115615025    13.822096839     1.180241141
  44    C       10.827258359    11.899383975     1.814573324
  45    C       12.876410194    12.408477938     2.877597255
  46    C        9.129902245    11.138612821     0.400978438
  47    C       11.105376063    10.528487757     2.060078659
  48    C       13.486535258    14.067578159     0.902147452
  49    C       11.177493105    14.107539118     0.183618682
  50    C       11.823880818    12.837505895     2.100015603
  51    C        9.907483897    12.191118182     0.830006395
  52    C       13.256183388    11.076966319     2.986817471
  53    C       12.368973265    10.068240301     2.555796269
  54    C       14.546461254    10.821182564     3.428309212
  55    C        5.838886782    21.465662766     2.771955275
  56    C        0.164862968    20.783204525     3.454389501
  57    C        6.963581230    21.318018552     3.554556062
  58    C        2.770898615    18.874324299     3.401388398
  59    C        3.232875150    21.412637648     0.863075049
  60    C        3.527491158    20.740770021     2.047182605
  61    C        2.476258592    20.058431855     2.729520771
  62    C        7.183990891    16.196651911     6.111865275
  63    C        5.895634225    16.831008109     4.189152411
  64    C        7.818347089    18.119388790     4.823508609
  65    C        6.404752203    18.880159944     3.126152495
  66    C        4.524738007    17.109125813     3.943671091
  67    C        6.833756145    17.827654583     3.903734147
  68    C        5.073240584    19.259933138     3.016956294
  69    C        0.930533181    21.028181529     1.248659873
  70    C        4.064490551    18.372723015     3.447977496
  71    C        1.939259199    21.459202731     0.361449750
  72    C        4.817456829    20.550211004     2.575464553
  73    C        1.186316936    20.586713803     2.538961754
[...]
  293          H           0.148527        0.8515     0.85147
  294          H           0.139350        0.8606     0.86065
  295          H           0.163015        0.8370     0.83699
  296          H           0.170286        0.8297     0.82971
  297          H           0.172932        0.8271     0.82707
  298          H           0.148532        0.8515     0.85147
  299          H           0.163035        0.8370     0.83697
  300          H           0.154621        0.8454     0.84538
  301          H           0.170284        0.8297     0.82972
  302          H           0.172917        0.8271     0.82708
  303          H           0.139367        0.8606     0.86063
  304          H           0.139380        0.8606     0.86062
  305          H           0.154620        0.8454     0.84538
  306          H           0.148552        0.8514     0.85145
  307          H           0.139353        0.8606     0.86065
  308          H           0.163045        0.8370     0.83696
  309          H           0.172935        0.8271     0.82706
  310          H           0.170277        0.8297     0.82972
  311          H           0.172954        0.8270     0.82705
  312          H           0.154594        0.8454     0.84541
  313          H           0.148605        0.8514     0.85139
  314          H           0.163078        0.8369     0.83692
  315          H           0.154532        0.8455     0.84547
  316          H           0.170252        0.8297     0.82975
  317          H           0.172967        0.8270     0.82703
  318          H           0.172930        0.8271     0.82707
  319          H           0.172922        0.8271     0.82708
  320          H           0.148518        0.8515     0.85148
  321          H           0.139375        0.8606     0.86063
  322          H           0.163009        0.8370     0.83699
  323          H           0.154625        0.8454     0.84537
  324          H           0.170284        0.8297     0.82972
  325          H           0.139369        0.8606     0.86063
  326          H           0.139304        0.8607     0.86070
  327          H           0.154620        0.8454     0.84538
  328          H           0.139303        0.8607     0.86070
  329          H           0.148569        0.8514     0.85143
  330          H           0.154541        0.8455     0.84546
  331          H           0.163042        0.8370     0.83696
  332          H           0.170269        0.8297     0.82973
  333          H           0.148534        0.8515     0.85147
  334          H           0.163047        0.8370     0.83695
  335          H           0.170285        0.8297     0.82971
  336          H           0.172959        0.8270     0.82704
  337          H           0.148580        0.8514     0.85142
  338          H           0.139317        0.8607     0.86068
  339          H           0.163071        0.8369     0.83693
  340          H           0.170257        0.8297     0.82974
  341          H           0.172947        0.8271     0.82705
  342          H           0.139357        0.8606     0.86064
  343          H           0.139293        0.8607     0.86071
  344          H           0.154540        0.8455     0.84546
  345          H           0.154577        0.8454     0.84542
  346          H           0.172937        0.8271     0.82706
  347          H           0.148569        0.8514     0.85143
  348          H           0.139366        0.8606     0.86063
  349          H           0.163075        0.8369     0.83692
  350          H           0.154608        0.8454     0.84539
  351          H           0.170270        0.8297     0.82973
  352          H           0.148532        0.8515     0.85147
  353          H           0.163027        0.8370     0.83697
  354          H           0.172924        0.8271     0.82708
  355          H           0.170275        0.8297     0.82972
  356          H           0.154581        0.8454     0.84542
  357          H           0.148572        0.8514     0.85143
  358          H           0.163044        0.8370     0.83696
  359          H           0.172927        0.8271     0.82707
  360          H           0.170267        0.8297     0.82973


          ATOMIC ORBITAL ELECTRON POPULATIONS

     Atom    s        px        py        pz   
    1  C   1.07596   0.99495   0.99599   1.06926
    2  C   1.12673   0.96476   0.98233   1.06207
    3  C   1.07542   1.00912   1.01667   1.04439
    4  C   1.10594   0.88350   1.02825   0.97063
    5  C   1.06181   0.91619   0.94958   0.95598
    6  C   1.05138   0.99473   0.98339   0.98005
    7  C   1.05507   0.99912   0.97889   0.96638
    8  C   1.04835   0.98283   0.97519   0.98511
    9  C   1.07674   0.97170   1.05850   0.98425
   10  C   1.07594   1.06931   0.99511   0.99605
   11  C   1.12678   1.06201   0.96464   0.98227
   12  C   1.09200   0.91299   0.98855   1.03490
   13  C   1.08261   1.01079   0.99782   1.03895
   14  C   1.06102   0.95994   0.96145   0.97541
   15  C   1.05731   1.01648   0.98874   0.98397
   16  C   1.05982   1.00997   1.02948   0.99712
   17  C   1.05981   0.99712   1.00998   1.02944
   18  C   1.05977   1.02953   0.99714   1.01004
   19  C   1.07536   1.04446   1.00914   1.01666
   20  C   1.10597   0.97064   0.88350   1.02821
   21  C   1.06176   0.95601   0.91626   0.94963
   22  C   1.05291   0.94377   0.96678   0.97495
   23  C   1.05137   0.98008   0.99485   0.98339
   24  C   1.05219   1.06090   0.98587   0.98591
   25  C   1.05508   0.96636   0.99899   0.97888
   26  C   1.03944   1.06291   0.99746   0.98757
   27  C   1.04838   0.98507   0.98255   0.97514
   28  C   1.07595   1.06931   0.99508   0.99605
   29  C   1.12677   1.06203   0.96465   0.98229
   30  C   1.07541   1.04441   1.00895   1.01667
   31  C   1.10589   0.97073   0.88389   1.02824
   32  C   1.06177   0.95609   0.91637   0.94971
   33  C   1.05137   0.98010   0.99493   0.98341
   34  C   1.05508   0.96632   0.99889   0.97887
   35  C   1.04838   0.98507   0.98256   0.97515
   36  C   1.07672   1.05854   0.98430   0.97182
   37  C   1.12203   1.06217   0.98776   0.99008
   38  C   1.12201   0.99016   1.06217   0.98779
   39  C   1.09197   0.98862   1.03491   0.91328
   40  C   1.08263   0.99761   1.03894   1.01075
   41  C   1.06100   0.96161   0.97544   0.96003
   42  C   1.05732   0.98864   0.98394   1.01630
   43  C   1.05394   1.00668   1.09494   1.04248
   44  C   1.05393   1.04248   1.00669   1.09497
   45  C   1.07521   1.05021   1.02162   1.04317
   46  C   1.07521   1.04317   1.05024   1.02165
   47  C   1.12052   0.94505   1.02684   0.78666
   48  C   1.12051   1.02684   0.78673   0.94505
   49  C   1.06838   0.91634   0.87339   0.92592
   50  C   1.06838   0.92595   0.91637   0.87341
   51  C   1.06838   0.87337   0.92592   0.91632
   52  C   1.05291   0.96682   0.97495   0.94388
   53  C   1.05220   0.98582   0.98590   1.06073
   54  C   1.03947   0.99742   0.98754   1.06268
   55  C   1.07594   0.99609   1.06933   0.99518
   56  C   1.07672   0.98428   0.97178   1.05852
   57  C   1.12681   0.98225   1.06198   0.96455
   58  C   1.08258   1.03896   1.01085   0.99801
   59  C   1.09200   1.03489   0.91297   0.98854
   60  C   1.05731   0.98397   1.01658   0.98879
   61  C   1.06102   0.97540   0.95989   0.96137
   62  C   1.05981   1.00988   1.02923   0.99709
   63  C   1.05983   0.99709   1.00986   1.02927
   64  C   1.05982   1.02919   0.99708   1.00986
   65  C   1.07537   1.01666   1.04444   1.00895
   66  C   1.10590   1.02824   0.97073   0.88383
   67  C   1.06176   0.94973   0.95610   0.91641
   68  C   1.05137   0.98341   0.98013   0.99501
   69  C   1.05291   0.97493   0.94372   0.96678
   70  C   1.05508   0.97886   0.96630   0.99882
   71  C   1.05220   0.98592   1.06096   0.98590
   72  C   1.04840   0.97511   0.98504   0.98237
   73  C   1.03944   0.98757   1.06293   0.99746
   74  C   1.08256   0.99818   1.03897   1.01089
   75  C   1.07541   1.00890   1.01665   1.04440
   76  C   1.10588   0.88394   1.02826   0.97077
   77  C   1.06176   0.91644   0.94976   0.95613
   78  C   1.05136   0.99510   0.98344   0.98015
   79  C   1.05509   0.99869   0.97884   0.96626
   80  C   1.12203   0.98775   0.99011   1.06217
   81  C   1.05390   1.09503   1.04255   1.00669
   82  C   1.07523   1.02163   1.04315   1.05023
   83  C   1.12053   0.78651   0.94501   1.02685
   84  C   1.07594   0.99616   1.06940   0.99530
   85  C   1.12681   0.98218   1.06206   0.96437
   86  C   1.07544   1.01662   1.04435   1.00865
   87  C   1.10585   1.02821   0.97085   0.88428
   88  C   1.06172   0.94993   0.95631   0.91665
   89  C   1.05136   0.98349   0.98020   0.99531
   90  C   1.05510   0.97882   0.96620   0.99845
   91  C   1.04846   0.97502   0.98496   0.98186
   92  C   1.07673   0.98419   0.97159   1.05844
   93  C   1.12197   1.06230   0.98772   0.99019
   94  C   1.12196   0.98772   0.99021   1.06229
   95  C   1.08254   1.03899   1.01096   0.99847
   96  C   1.09207   1.03487   0.91236   0.98838
   97  C   1.05728   0.98403   1.01692   0.98898
   98  C   1.06105   0.97534   0.95973   0.96103
   99  C   1.05386   1.09541   1.04272   1.00674
  100  C   1.05387   1.00674   1.09540   1.04272
  101  C   1.07534   1.05015   1.02163   1.04310
  102  C   1.07534   1.02164   1.04310   1.05017
  103  C   1.12068   0.78579   0.94481   1.02678
  104  C   1.12068   1.02678   0.78582   0.94481
  105  C   1.06844   0.91614   0.87312   0.92580
  106  C   1.06843   0.92583   0.91616   0.87314
  107  C   1.06844   0.87313   0.92582   0.91615
  108  C   1.05292   0.97491   0.94347   0.96670
  109  C   1.05218   0.98595   1.06132   0.98603
  110  C   1.03939   0.98763   1.06341   0.99754
  111  C   1.08261   1.03896   1.01079   0.99780
  112  C   1.07536   1.01668   1.04447   1.00914
  113  C   1.10594   1.02826   0.97066   0.88358
  114  C   1.06179   0.94959   0.95595   0.91621
  115  C   1.05137   0.98339   0.98008   0.99486
  116  C   1.05507   0.97888   0.96635   0.99898
  117  C   1.07672   0.97179   1.05853   0.98428
  118  C   1.12203   0.99012   1.06216   0.98778
  119  C   1.12198   0.98779   0.99015   1.06225
  120  C   1.09197   0.91320   0.98860   1.03491
  121  C   1.08260   1.01082   0.99789   1.03896
  122  C   1.06101   0.95995   0.96148   0.97541
  123  C   1.05732   1.01644   0.98872   0.98395
  124  C   1.05396   1.09487   1.04241   1.00666
  125  C   1.05394   1.04245   1.00668   1.09490
  126  C   1.07521   1.04315   1.05023   1.02163
  127  C   1.07531   1.02161   1.04309   1.05009
  128  C   1.12049   0.94508   1.02686   0.78679
  129  C   1.12050   0.78679   0.94506   1.02681
  130  C   1.06840   0.91640   0.87344   0.92602
  131  C   1.06838   0.92596   0.91637   0.87342
  132  C   1.06837   0.87345   0.92600   0.91639
  133  C   1.05291   0.94382   0.96680   0.97494
  134  C   1.05219   1.06078   0.98584   0.98590
  135  C   1.03945   1.06281   0.99744   0.98756
  136  C   1.06103   0.97541   0.95994   0.96146
  137  C   1.07595   0.99604   1.06930   0.99509
  138  C   1.07673   1.05853   0.98429   0.97180
  139  C   1.07673   0.98426   0.97172   1.05852
  140  C   1.12679   0.98228   1.06199   0.96466
  141  C   1.12205   1.06214   0.98777   0.99010
  142  C   1.09197   0.98860   1.03491   0.91319
  143  C   1.09198   1.03490   0.91313   0.98859
  144  C   1.05731   0.98396   1.01645   0.98873
  145  C   1.05732   0.98871   0.98395   1.01644
  146  C   1.05390   1.00670   1.09492   1.04250
  147  C   1.07520   1.05024   1.02165   1.04312
  148  C   1.12050   1.02682   0.78675   0.94506
  149  C   1.05291   0.96681   0.97494   0.94383
  150  C   1.05291   0.97496   0.94381   0.96680
  151  C   1.05220   0.98583   0.98590   1.06078
  152  C   1.05219   0.98591   1.06083   0.98584
  153  C   1.04837   0.97515   0.98508   0.98260
  154  C   1.03946   0.99744   0.98756   1.06278
  155  C   1.03946   0.98756   1.06284   0.99744
  156  C   1.06101   0.96150   0.97541   0.95996
  157  C   1.06103   0.96119   0.97538   0.95981
  158  C   1.07674   1.05845   0.98420   0.97162
  159  C   1.07594   0.99520   0.99611   1.06936
  160  C   1.07673   0.97164   1.05845   0.98421
  161  C   1.12680   0.96450   0.98223   1.06204
  162  C   1.12197   0.99017   1.06230   0.98771
  163  C   1.09205   0.98843   1.03488   0.91255
  164  C   1.09205   0.91251   0.98842   1.03488
  165  C   1.05730   0.98889   0.98400   1.01675
  166  C   1.05730   1.01676   0.98889   0.98401
  167  C   1.05387   1.04269   1.00674   1.09537
  168  C   1.07533   1.04311   1.05015   1.02164
  169  C   1.12067   0.94483   1.02677   0.78587
  170  C   1.05292   0.96672   0.97492   0.94356
  171  C   1.05291   0.94356   0.96672   0.97492
  172  C   1.05219   0.98599   0.98594   1.06121
  173  C   1.05219   1.06123   0.98600   0.98595
  174  C   1.03941   0.99751   0.98760   1.06324
  175  C   1.04842   0.98216   0.97507   0.98501
  176  C   1.03940   1.06326   0.99751   0.98761
  177  C   1.06104   0.95981   0.96118   0.97537
  178  C   1.07594   0.99508   0.99605   1.06931
  179  C   1.12675   0.96462   0.98228   1.06206
  180  C   1.08256   1.01090   0.99820   1.03897
  181  C   1.04838   0.98254   0.97514   0.98507
  182  C   1.07674   1.05846   0.98422   0.97163
  183  C   1.07595   0.99518   0.99611   1.06936
  184  C   1.12676   0.96448   0.98223   1.06212
  185  C   1.09203   0.98847   1.03488   0.91268
  186  C   1.08255   0.99832   1.03898   1.01093
  187  C   1.06104   0.96117   0.97536   0.95979
  188  C   1.05730   0.98889   0.98400   1.01676
  189  C   1.05984   1.00973   1.02897   0.99705
  190  C   1.05984   0.99704   1.00970   1.02891
  191  C   1.05981   1.02891   0.99704   1.00973
  192  C   1.07548   1.00866   1.01662   1.04431
  193  C   1.10585   0.88431   1.02822   0.97085
  194  C   1.06174   0.91660   0.94991   0.95630
  195  C   1.05292   0.96674   0.97493   0.94360
  196  C   1.05137   0.99522   0.98349   0.98018
  197  C   1.05218   0.98595   0.98593   1.06110
  198  C   1.05509   0.99856   0.97883   0.96623
  199  C   1.03941   0.99751   0.98761   1.06322
  200  C   1.04844   0.98208   0.97507   0.98500
  201  C   1.12199   0.99014   1.06225   0.98775
  202  C   1.05388   1.04260   1.00671   1.09514
  203  C   1.07529   1.04307   1.05015   1.02163
  204  C   1.12058   0.94493   1.02681   0.78633
  205  C   1.08256   1.01089   0.99821   1.03898
  206  C   1.07545   1.04436   1.00870   1.01663
  207  C   1.10586   0.97081   0.88421   1.02819
  208  C   1.06172   0.95628   0.91660   0.94990
  209  C   1.05137   0.98016   0.99515   0.98346
  210  C   1.05509   0.96626   0.99865   0.97884
  211  C   1.06103   0.95986   0.96131   0.97537
  212  C   1.07673   0.97172   1.05850   0.98425
  213  C   1.07672   0.98427   0.97176   1.05852
  214  C   1.07595   1.06935   0.99518   0.99610
  215  C   1.12202   0.98778   0.99014   1.06217
  216  C   1.12678   1.06206   0.96450   0.98224
  217  C   1.09199   0.91297   0.98854   1.03490
  218  C   1.09198   1.03490   0.91311   0.98858
  219  C   1.05731   0.98396   1.01648   0.98874
  220  C   1.05730   1.01663   0.98882   0.98398
  221  C   1.05393   1.09501   1.04250   1.00670
  222  C   1.07521   1.02164   1.04315   1.05023
  223  C   1.12051   0.78664   0.94503   1.02685
  224  C   1.05291   0.94369   0.96678   0.97492
  225  C   1.05292   0.97493   0.94378   0.96679
  226  C   1.05219   1.06092   0.98588   0.98591
  227  C   1.05220   0.98590   1.06083   0.98585
  228  C   1.03943   1.06301   0.99747   0.98759
  229  C   1.03945   0.98757   1.06287   0.99745
  230  C   1.04842   0.98502   0.98222   0.97509
  231  C   1.06102   0.97540   0.95994   0.96144
  232  C   1.07596   0.99605   1.06931   0.99507
  233  C   1.12676   0.98228   1.06208   0.96463
  234  C   1.08260   0.99788   1.03896   1.01081
  235  C   1.04839   0.97513   0.98506   0.98250
  236  C   1.12197   1.06228   0.98776   0.99019
  237  C   1.05393   1.00670   1.09513   1.04253
  238  C   1.07531   1.05015   1.02163   1.04312
  239  C   1.12058   1.02679   0.78634   0.94495
  240  C   1.07595   1.06935   0.99519   0.99610
  241  C   1.12678   1.06208   0.96450   0.98223
  242  C   1.08259   1.03896   1.01083   0.99795
  243  C   1.04843   0.98500   0.98213   0.97507
  244  C   1.05981   1.00984   1.02918   0.99708
  245  C   1.05981   0.99707   1.00985   1.02917
  246  C   1.05980   1.02927   0.99709   1.00988
  247  C   1.07544   1.01664   1.04437   1.00889
  248  C   1.07544   1.00890   1.01665   1.04438
  249  C   1.07544   1.04435   1.00884   1.01663
  250  C   1.10590   1.02822   0.97074   0.88394
  251  C   1.10591   0.88381   1.02821   0.97071
  252  C   1.10591   0.97075   0.88391   1.02821
  253  C   1.06837   0.91632   0.87337   0.92593
  254  C   1.06176   0.91640   0.94974   0.95613
  255  C   1.06841   0.92590   0.91627   0.87327
  256  C   1.06175   0.95620   0.91648   0.94981
  257  C   1.06842   0.87332   0.92592   0.91629
  258  C   1.06177   0.94975   0.95613   0.91639
  259  C   1.05137   0.98343   0.98010   0.99496
  260  C   1.05138   0.99493   0.98342   0.98010
  261  C   1.05137   0.98015   0.99512   0.98346
  262  C   1.05508   0.97886   0.96631   0.99885
  263  C   1.05508   0.99891   0.97887   0.96633
  264  C   1.05509   0.96627   0.99868   0.97885
  265  B   0.66781   0.72754   0.55728   0.99145
  266  B   0.66781   0.99144   0.72754   0.55714
  267  B   0.66786   0.99143   0.72750   0.55705
  268  B   0.64552   0.99874   0.64044   0.75524
  269  B   0.64546   0.75530   0.99876   0.64065
  270  B   0.66784   0.55701   0.99143   0.72749
  271  B   0.66789   0.72748   0.55691   0.99138
  272  B   0.64541   0.64081   0.75538   0.99875
  273  B   0.66795   0.55672   0.99133   0.72743
  274  B   0.64525   0.99870   0.64157   0.75566
  275  B   0.64522   0.64170   0.75570   0.99872
  276  B   0.66780   0.55719   0.99145   0.72754
  277  B   0.64552   0.75523   0.99875   0.64042
  278  B   0.64553   0.64052   0.75524   0.99872
  279  B   0.64551   0.99874   0.64046   0.75524
  280  B   0.64525   0.75567   0.99871   0.64161
  281  B   0.66795   0.72743   0.55680   0.99134
  282  B   0.64541   0.75542   0.99871   0.64092
  283  B   0.66792   0.99138   0.72744   0.55685
  284  B   0.64548   0.64056   0.75528   0.99874
  285  B   0.64537   0.99872   0.64114   0.75547
  286  B   0.66785   0.72750   0.55710   0.99142
  287  B   0.66787   0.55706   0.99140   0.72751
  288  B   0.66790   0.99136   0.72749   0.55692
  289  H   0.85150
  290  H   0.84538
  291  H   0.83698
  292  H   0.82970
  293  H   0.85147
  294  H   0.86065
  295  H   0.83699
  296  H   0.82971
  297  H   0.82707
  298  H   0.85147
  299  H   0.83697
  300  H   0.84538
  301  H   0.82972
  302  H   0.82708
  303  H   0.86063
  304  H   0.86062
  305  H   0.84538
  306  H   0.85145
  307  H   0.86065
  308  H   0.83696
  309  H   0.82706
  310  H   0.82972
  311  H   0.82705
  312  H   0.84541
  313  H   0.85139
  314  H   0.83692
  315  H   0.84547
  316  H   0.82975
  317  H   0.82703
  318  H   0.82707
  319  H   0.82708
  320  H   0.85148
  321  H   0.86063
  322  H   0.83699
  323  H   0.84537
  324  H   0.82972
  325  H   0.86063
  326  H   0.86070
  327  H   0.84538
  328  H   0.86070
  329  H   0.85143
  330  H   0.84546
  331  H   0.83696
  332  H   0.82973
  333  H   0.85147
  334  H   0.83695
  335  H   0.82971
  336  H   0.82704
  337  H   0.85142
  338  H   0.86068
  339  H   0.83693
  340  H   0.82974
  341  H   0.82705
  342  H   0.86064
  343  H   0.86071
  344  H   0.84546
  345  H   0.84542
  346  H   0.82706
  347  H   0.85143
  348  H   0.86063
  349  H   0.83692
  350  H   0.84539
  351  H   0.82973
  352  H   0.85147
  353  H   0.83697
  354  H   0.82708
  355  H   0.82972
  356  H   0.84542
  357  H   0.85143
  358  H   0.83696
  359  H   0.82707
  360  H   0.82973

 **********************
 *                    *
 * JOB ENDED NORMALLY *
 *                    *
 **********************



 TOTAL JOB TIME:           105.27 SECONDS

 == MOPAC DONE ==
