LAMMPS data file generated by OpenBabel
360 atoms
432 bonds
741 angles
1272 dihedrals
0 impropers
3 atom types
3 bond types
2 angle types
3 dihedral types
0 improper types
 0.000000 24.070000  xlo xhi
 0.000000 24.070000  ylo yhi
 0.000000 24.070000  zlo zhi

Masses

1 12.0107  # C
2 1.00794  # H
3 1.00794  # H

Atoms

1       1    1    0.00000   17.76607   14.46126   21.22974 #   C
2       1    2    0.41000   17.55184   13.45032   21.59801 #   H
3       1    1    0.00000   16.88029   15.47701   21.48729 #   C
4       1    1    0.00000   15.55885   15.38314   22.14199 #   C
5       1    1    0.00000   15.29408   14.79583   23.32142 #   C
6       1    2    0.41000   16.08357   14.31924   23.91595 #   H
7       1    1    0.00000   13.92450   14.71158   23.83171 #   C
8       1    1    0.00000   12.92078   14.99080   22.80873 #   C
9       1    1    0.00000   11.63062   14.54550   22.96278 #   C
10      1    1    0.00000   10.78817   14.01596   21.90851 #   C
11      1    1    0.00000    9.89758   13.00261   22.56563 #   C
12      1    1    0.00000   10.10699   13.19999   24.00260 #   C
13      1    1    0.00000    9.35842   11.79671   22.18051 #   C
14      1    1    0.00000    9.07920   10.77373   23.18422 #   C
15      1    1    0.00000    8.60021    9.45951   22.89779 #   C
16      1    1    0.00000    8.85776    8.44376   23.78357 #   C
17      1    2    0.41000    8.48949    7.43282   23.56934 #   H
18      1    1    0.00000    7.94551    9.36564   21.57635 #   C
19      1    1    0.00000    6.76608    8.77833   21.31158 #   C
20      1    2    0.41000    6.17155    8.30174   22.10107 #   H
21      1    1    0.00000    6.25579    8.69408   19.94200 #   C
22      1    1    0.00000    5.04989    8.15492   19.55688 #   C
23      1    1    0.00000    4.03654    7.26433   20.21399 #   C
24      1    1    0.00000    3.64901    6.90568   21.46803 #   C
25      1    2    0.41000    3.94267    7.46411   22.35622 #   H
26      1    1    0.00000    2.84026    5.73107   21.64374 #   C
27      1    2    0.41000    2.47199    5.51684   22.65468 #   H
28      1    1    0.00000    2.58271    4.84529   20.62799 #   C
29      1    1    0.00000    1.92801    3.52385   20.72186 #   C
30      1    1    0.00000    0.74858    3.25908   21.30917 #   C
31      1    2    0.41000    0.15405    4.04857   21.78576 #   H
32      1    1    0.00000    0.23829    1.88950   21.39342 #   C
33      1    1    0.00000    1.26127    0.88578   21.11420 #   C
34      1    1    0.00000    2.57549    1.17221   20.63521 #   C
35      1    1    0.00000    3.59124    0.28643   20.89276 #   C
36      1    2    0.41000    4.60218    0.50066   20.52449 #   H
37      1    1    0.00000    2.66936    2.49365   19.98051 #   C
38      1    1    0.00000    3.25667    2.75842   18.80108 #   C
39      1    1    0.00000    3.34092    4.12801   18.29079 #   C
40      1    1    0.00000    3.88008    4.51313   17.08489 #   C
41      1    1    0.00000    4.08949    5.95010   16.88751 #   C
42      1    1    0.00000    3.93785    6.86236   17.89123 #   C
43      1    1    0.00000    5.17264    6.17877   15.97285 #   C
44      1    1    0.00000    6.08490    7.18249   16.12449 #   C
45      1    1    0.00000    5.85623    8.09715   17.20764 #   C
46      1    1    0.00000    7.12472    8.52800   17.64812 #   C
47      1    1    0.00000    8.17899    7.99846   16.80567 #   C
48      1    1    0.00000    9.43303    8.38599   17.16432 #   C
49      1    1    0.00000    9.60874    9.19474   18.33893 #   C
50      1    1    0.00000    8.59299    9.45229   19.22471 #   C
51      1    2    0.41000   10.61968    9.56301   18.55316 #   H
52      1    2    0.41000   10.32122    8.09233   16.60589 #   H
53      1    1    0.00000    7.52188    6.98511   15.91508 #   C
54      1    1    0.00000    7.90700    5.77921   15.37592 #   C
55      1    1    0.00000    9.27658    5.26892   15.29167 #   C
56      1    2    0.41000   10.06607    5.86345   15.76826 #   H
57      1    1    0.00000    9.54135    4.08949   14.70436 #   C
58      1    1    0.00000   10.86279    3.43479   14.61049 #   C
59      1    1    0.00000   11.74857    3.17724   15.62624 #   C
60      1    2    0.41000   11.53434    3.54551   16.63718 #   H
61      1    1    0.00000   12.92318    2.36849   15.45053 #   C
62      1    2    0.41000   13.48161    2.07483   16.33872 #   H
63      1    1    0.00000   13.28183    1.98096   14.19649 #   C
64      1    1    0.00000   14.17242    0.96761   13.53938 #   C
65      1    1    0.00000   13.96301    1.16499   12.10240 #   C
66      1    1    0.00000   12.87986    2.07965   11.87373 #   C
67      1    1    0.00000   11.96760    1.92801   10.87001 #   C
68      1    1    0.00000   10.53063    2.13742   11.06739 #   C
69      1    1    0.00000   10.14551    2.67658   12.27329 #   C
70      1    1    0.00000    8.77592    2.76083   12.78358 #   C
71      1    2    0.41000    7.98643    2.28424   12.18905 #   H
72      1    1    0.00000    9.87351    1.24683   10.05404 #   C
73      1    1    0.00000    8.61947    0.88818    9.66651 #   C
74      1    2    0.41000    7.73128    1.44661    9.96017 #   H
75      1    1    0.00000   10.92778    0.40438    9.52450 #   C
76      1    1    0.00000   12.19627    0.84486    9.95535 #   C
77      1    1    0.00000   14.11465    0.16127   11.19014 #   C
78      1    1    0.00000   12.43938    2.51050   13.14222 #   C
79      1    1    0.00000   11.14922    2.95580   13.29627 #   C
80      1    1    0.00000    8.51115    3.34814   13.96301 #   C
81      1    1    0.00000    7.18971    3.44201   14.61771 #   C
82      1    1    0.00000    6.30393    2.42626   14.87526 #   C
83      1    1    0.00000    5.12932    2.60197   15.68401 #   C
84      1    2    0.41000    4.57089    1.71378   15.97767 #   H
85      1    2    0.41000    6.51816    1.41532   14.50699 #   H
86      1    1    0.00000    6.90328    4.75623   15.09670 #   C
87      1    1    0.00000    5.61312    4.91028   15.54200 #   C
88      1    1    0.00000    4.77067    3.85601   16.07154 #   C
89      1    2    0.41000    3.73326    1.96893   18.20655 #   H
90      1    1    0.00000    3.06170    5.13172   19.31377 #   C
91      1    1    0.00000    3.50700    6.42188   19.15972 #   C
92      1    1    0.00000    4.85251    7.94551   18.11990 #   C
93      1    1    0.00000    7.27877    8.97330   18.93828 #   C
94      1    1    0.00000    8.68686   10.10699   20.54615 #   C
95      1    1    0.00000    9.27417   11.28642   20.81092 #   C
96      1    2    0.41000    9.75076   11.88095   20.02143 #   H
97      1    1    0.00000   11.14682   14.40349   20.65447 #   C
98      1    1    0.00000   12.32143   15.21224   20.47876 #   C
99      1    2    0.41000   12.53566   15.58051   19.46782 #   H
100     1    2    0.41000   10.58839   14.10983   19.76628 #   H
101     1    1    0.00000   13.20721   15.46979   21.49451 #   C
102     1    1    0.00000   14.52865   16.12449   21.40064 #   C
103     1    1    0.00000   14.79342   17.30392   20.81333 #   C
104     1    1    0.00000   16.16300   17.81421   20.72908 #   C
105     1    1    0.00000   16.54812   19.02011   20.18992 #   C
106     1    1    0.00000   17.98510   19.21749   19.98051 #   C
107     1    1    0.00000   18.89736   18.21377   20.13215 #   C
108     1    1    0.00000   18.45688   16.94528   20.56300 #   C
109     1    1    0.00000   19.29933   15.89101   20.03346 #   C
110     1    1    0.00000   20.18992   16.54812   19.02011 #   C
111     1    1    0.00000   20.72908   16.16300   17.81421 #   C
112     1    1    0.00000   20.81333   14.79342   17.30392 #   C
113     1    2    0.41000   20.33674   14.00393   17.89845 #   H
114     1    1    0.00000   21.40064   14.52865   16.12449 #   C
115     1    1    0.00000   21.49451   13.20721   15.46979 #   C
116     1    1    0.00000   20.47876   12.32143   15.21224 #   C
117     1    2    0.41000   19.46782   12.53566   15.58051 #   H
118     1    1    0.00000   20.65447   11.14682   14.40349 #   C
119     1    2    0.41000   19.76628   10.58839   14.10983 #   H
120     1    1    0.00000   21.90851   10.78817   14.01596 #   C
121     1    1    0.00000   22.96278   11.63062   14.54550 #   C
122     1    1    0.00000   22.56563    9.89758   13.00261 #   C
123     1    1    0.00000   24.00260   10.10699   13.19999 #   C
124     1    1    0.00000   22.18051    9.35842   11.79671 #   C
125     1    1    0.00000   20.81092    9.27417   11.28642 #   C
126     1    2    0.41000   20.02143    9.75076   11.88095 #   H
127     1    1    0.00000   20.54615    8.68686   10.10699 #   C
128     1    1    0.00000   19.22471    8.59299    9.45229 #   C
129     1    1    0.00000   18.33893    9.60874    9.19474 #   C
130     1    2    0.41000   18.55316   10.61968    9.56301 #   H
131     1    1    0.00000   17.16432    9.43303    8.38599 #   C
132     1    2    0.41000   16.60589   10.32122    8.09233 #   H
133     1    1    0.00000   16.80567    8.17899    7.99846 #   C
134     1    1    0.00000   17.64812    7.12472    8.52800 #   C
135     1    1    0.00000   17.20764    5.85623    8.09715 #   C
136     1    1    0.00000   18.11990    4.85251    7.94551 #   C
137     1    1    0.00000   19.55688    5.04989    8.15492 #   C
138     1    1    0.00000   19.94200    6.25579    8.69408 #   C
139     1    1    0.00000   21.31158    6.76608    8.77833 #   C
140     1    2    0.41000   22.10107    6.17155    8.30174 #   H
141     1    1    0.00000   20.21399    4.03654    7.26433 #   C
142     1    1    0.00000   21.46803    3.64901    6.90568 #   C
143     1    2    0.41000   22.35622    3.94267    7.46411 #   H
144     1    1    0.00000   21.64374    2.84026    5.73107 #   C
145     1    2    0.41000   22.65468    2.47199    5.51684 #   H
146     1    1    0.00000   20.62799    2.58271    4.84529 #   C
147     1    1    0.00000   19.31377    3.06170    5.13172 #   C
148     1    1    0.00000   18.29079    3.34092    4.12801 #   C
149     1    1    0.00000   17.08489    3.88008    4.51313 #   C
150     1    1    0.00000   16.88751    4.08949    5.95010 #   C
151     1    1    0.00000   15.97285    5.17264    6.17877 #   C
152     1    1    0.00000   15.54200    5.61312    4.91028 #   C
153     1    1    0.00000   15.09670    6.90328    4.75623 #   C
154     1    1    0.00000   15.37592    7.90700    5.77921 #   C
155     1    1    0.00000   15.29167    9.27658    5.26892 #   C
156     1    2    0.41000   15.76826   10.06607    5.86345 #   H
157     1    1    0.00000   14.70436    9.54135    4.08949 #   C
158     1    1    0.00000   14.61049   10.86279    3.43479 #   C
159     1    1    0.00000   15.62624   11.74857    3.17724 #   C
160     1    2    0.41000   16.63718   11.53434    3.54551 #   H
161     1    1    0.00000   15.45053   12.92318    2.36849 #   C
162     1    2    0.41000   16.33872   13.48161    2.07483 #   H
163     1    1    0.00000   14.19649   13.28183    1.98096 #   C
164     1    1    0.00000   13.14222   12.43938    2.51050 #   C
165     1    1    0.00000   11.87373   12.87986    2.07965 #   C
166     1    1    0.00000   10.87001   11.96760    1.92801 #   C
167     1    1    0.00000   11.06739   10.53063    2.13742 #   C
168     1    1    0.00000   12.27329   10.14551    2.67658 #   C
169     1    1    0.00000   12.78358    8.77592    2.76083 #   C
170     1    2    0.41000   12.18905    7.98643    2.28424 #   H
171     1    1    0.00000   10.05404    9.87351    1.24683 #   C
172     1    1    0.00000    9.66651    8.61947    0.88818 #   C
173     1    2    0.41000    9.96017    7.73128    1.44661 #   H
174     1    1    0.00000    9.52450   10.92778    0.40438 #   C
175     1    1    0.00000    9.95535   12.19627    0.84486 #   C
176     1    1    0.00000   12.10240   13.96301    1.16499 #   C
177     1    1    0.00000   11.19014   14.11465    0.16127 #   C
178     1    1    0.00000   13.53938   14.17242    0.96761 #   C
179     1    1    0.00000   13.29627   11.14922    2.95580 #   C
180     1    1    0.00000   13.96301    8.51115    3.34814 #   C
181     1    1    0.00000   14.61771    7.18971    3.44201 #   C
182     1    1    0.00000   14.87526    6.30393    2.42626 #   C
183     1    1    0.00000   15.68401    5.12932    2.60197 #   C
184     1    2    0.41000   15.97767    4.57089    1.71378 #   H
185     1    2    0.41000   14.50699    6.51816    1.41532 #   H
186     1    1    0.00000   16.07154    4.77067    3.85601 #   C
187     1    1    0.00000   18.80108    3.25667    2.75842 #   C
188     1    1    0.00000   19.98051    2.66936    2.49365 #   C
189     1    1    0.00000   20.63521    2.57549    1.17221 #   C
190     1    1    0.00000   21.11420    1.26127    0.88578 #   C
191     1    1    0.00000   21.39342    0.23829    1.88949 #   C
192     1    1    0.00000   21.30917    0.74858    3.25908 #   C
193     1    2    0.41000   21.78576    0.15405    4.04857 #   H
194     1    1    0.00000   20.89276    3.59124    0.28643 #   C
195     1    2    0.41000   20.52449    4.60218    0.50066 #   H
196     1    2    0.41000   18.20655    3.73326    1.96893 #   H
197     1    1    0.00000   20.72186    1.92801    3.52385 #   C
198     1    1    0.00000   19.15972    3.50700    6.42188 #   C
199     1    1    0.00000   17.89123    3.93785    6.86236 #   C
200     1    1    0.00000   16.12449    6.08490    7.18249 #   C
201     1    1    0.00000   15.91508    7.52187    6.98511 #   C
202     1    1    0.00000   18.93828    7.27877    8.97330 #   C
203     1    1    0.00000   21.57635    7.94551    9.36564 #   C
204     1    1    0.00000   22.89779    8.60021    9.45951 #   C
205     1    1    0.00000   23.78357    8.85776    8.44376 #   C
206     1    2    0.41000   23.56934    8.48949    7.43282 #   H
207     1    1    0.00000   23.18422    9.07920   10.77373 #   C
208     1    1    0.00000   22.80873   12.92078   14.99080 #   C
209     1    1    0.00000   23.83171   13.92450   14.71158 #   C
210     1    1    0.00000   23.32142   15.29408   14.79583 #   C
211     1    2    0.41000   23.91595   16.08357   14.31924 #   H
212     1    1    0.00000   22.14199   15.55885   15.38314 #   C
213     1    1    0.00000   21.48729   16.88029   15.47701 #   C
214     1    1    0.00000   21.22974   17.76607   14.46126 #   C
215     1    1    0.00000   20.42099   18.94068   14.63697 #   C
216     1    1    0.00000   20.03346   19.29933   15.89101 #   C
217     1    1    0.00000   20.56300   18.45688   16.94528 #   C
218     1    1    0.00000   20.13215   18.89736   18.21377 #   C
219     1    1    0.00000   19.21749   19.98051   17.98510 #   C
220     1    1    0.00000   19.02011   20.18992   16.54812 #   C
221     1    1    0.00000   17.81421   20.72908   16.16300 #   C
222     1    1    0.00000   16.79123   21.00830   17.16672 #   C
223     1    1    0.00000   16.94528   20.56300   18.45688 #   C
224     1    1    0.00000   15.47701   21.48729   16.88029 #   C
225     1    1    0.00000   14.46126   21.22974   17.76607 #   C
226     1    1    0.00000   14.63697   20.42099   18.94068 #   C
227     1    2    0.41000   13.74878   20.12733   19.49911 #   H
228     1    2    0.41000   13.45032   21.59801   17.55184 #   H
229     1    1    0.00000   15.38314   22.14199   15.55885 #   C
230     1    1    0.00000   14.79583   23.32142   15.29408 #   C
231     1    2    0.41000   14.31924   23.91595   16.08357 #   H
232     1    1    0.00000   14.71158   23.83171   13.92450 #   C
233     1    1    0.00000   14.99080   22.80873   12.92078 #   C
234     1    1    0.00000   15.46979   21.49451   13.20721 #   C
235     1    1    0.00000   15.21224   20.47876   12.32143 #   C
236     1    2    0.41000   15.58051   19.46782   12.53566 #   H
237     1    1    0.00000   14.40349   20.65447   11.14682 #   C
238     1    1    0.00000   14.01596   21.90851   10.78817 #   C
239     1    1    0.00000   13.00261   22.56563    9.89758 #   C
240     1    1    0.00000   13.19999   24.00260   10.10699 #   C
241     1    1    0.00000   11.79671   22.18051    9.35842 #   C
242     1    1    0.00000   11.28642   20.81092    9.27417 #   C
243     1    2    0.41000   11.88095   20.02143    9.75076 #   H
244     1    1    0.00000   10.10699   20.54615    8.68686 #   C
245     1    1    0.00000    9.45229   19.22471    8.59299 #   C
246     1    1    0.00000    9.19474   18.33893    9.60874 #   C
247     1    2    0.41000    9.56301   18.55316   10.61968 #   H
248     1    1    0.00000    8.38599   17.16432    9.43303 #   C
249     1    2    0.41000    8.09233   16.60589   10.32122 #   H
250     1    1    0.00000    7.99846   16.80567    8.17899 #   C
251     1    1    0.00000    6.98511   15.91508    7.52187 #   C
252     1    1    0.00000    5.77921   15.37592    7.90700 #   C
253     1    1    0.00000    5.26892   15.29167    9.27658 #   C
254     1    2    0.41000    5.86345   15.76826   10.06607 #   H
255     1    1    0.00000    4.08949   14.70436    9.54135 #   C
256     1    1    0.00000    3.43479   14.61049   10.86279 #   C
257     1    1    0.00000    3.17724   15.62624   11.74857 #   C
258     1    1    0.00000    2.36849   15.45053   12.92318 #   C
259     1    2    0.41000    2.07483   16.33872   13.48161 #   H
260     1    1    0.00000    1.98096   14.19649   13.28183 #   C
261     1    1    0.00000    0.96761   13.53938   14.17242 #   C
262     1    1    0.00000    1.16499   12.10240   13.96301 #   C
263     1    1    0.00000    0.16127   11.19014   14.11465 #   C
264     1    1    0.00000    2.07965   11.87373   12.87986 #   C
265     1    1    0.00000    1.92801   10.87001   11.96760 #   C
266     1    1    0.00000    0.84486    9.95535   12.19627 #   C
267     1    1    0.00000    0.40438    9.52450   10.92778 #   C
268     1    1    0.00000    1.24683   10.05404    9.87351 #   C
269     1    1    0.00000    0.88818    9.66651    8.61947 #   C
270     1    2    0.41000    1.44661    9.96017    7.73128 #   H
271     1    1    0.00000    2.13742   11.06739   10.53063 #   C
272     1    1    0.00000    2.67658   12.27329   10.14551 #   C
273     1    1    0.00000    2.76083   12.78358    8.77592 #   C
274     1    2    0.41000    2.28424   12.18905    7.98643 #   H
275     1    1    0.00000    2.51050   13.14222   12.43938 #   C
276     1    2    0.41000    3.54551   16.63718   11.53434 #   H
277     1    1    0.00000    2.95580   13.29627   11.14922 #   C
278     1    1    0.00000    3.34814   13.96301    8.51115 #   C
279     1    1    0.00000    3.44201   14.61771    7.18971 #   C
280     1    1    0.00000    2.42626   14.87526    6.30393 #   C
281     1    2    0.41000    1.41532   14.50699    6.51816 #   H
282     1    1    0.00000    2.60197   15.68401    5.12932 #   C
283     1    1    0.00000    3.85601   16.07154    4.77067 #   C
284     1    1    0.00000    4.91028   15.54200    5.61312 #   C
285     1    1    0.00000    6.17877   15.97285    5.17264 #   C
286     1    1    0.00000    5.95010   16.88751    4.08949 #   C
287     1    1    0.00000    6.86236   17.89123    3.93785 #   C
288     1    1    0.00000    7.94551   18.11990    4.85251 #   C
289     1    1    0.00000    8.09715   17.20764    5.85623 #   C
290     1    1    0.00000    8.15492   19.55688    5.04989 #   C
291     1    1    0.00000    8.69408   19.94200    6.25579 #   C
292     1    1    0.00000    8.77833   21.31158    6.76608 #   C
293     1    2    0.41000    8.30174   22.10107    6.17155 #   H
294     1    1    0.00000    7.26433   20.21399    4.03654 #   C
295     1    1    0.00000    6.90568   21.46803    3.64901 #   C
296     1    2    0.41000    7.46411   22.35622    3.94267 #   H
297     1    1    0.00000    5.73107   21.64374    2.84026 #   C
298     1    1    0.00000    4.84529   20.62799    2.58271 #   C
299     1    1    0.00000    5.13172   19.31377    3.06170 #   C
300     1    1    0.00000    4.12801   18.29079    3.34092 #   C
301     1    1    0.00000    2.75842   18.80108    3.25667 #   C
302     1    2    0.41000    1.96893   18.20655    3.73326 #   H
303     1    1    0.00000    2.49365   19.98051    2.66936 #   C
304     1    1    0.00000    1.17221   20.63521    2.57549 #   C
305     1    1    0.00000    0.28643   20.89276    3.59124 #   C
306     1    2    0.41000    0.50066   20.52449    4.60218 #   H
307     1    1    0.00000    0.88578   21.11420    1.26127 #   C
308     1    1    0.00000    1.88950   21.39342    0.23829 #   C
309     1    1    0.00000    3.25908   21.30917    0.74858 #   C
310     1    2    0.41000    4.04857   21.78576    0.15405 #   H
311     1    1    0.00000    3.52385   20.72186    1.92801 #   C
312     1    2    0.41000    5.51684   22.65468    2.47199 #   H
313     1    1    0.00000    6.42188   19.15972    3.50700 #   C
314     1    1    0.00000    4.51313   17.08489    3.88008 #   C
315     1    2    0.41000    1.71378   15.97767    4.57089 #   H
316     1    1    0.00000    4.75623   15.09670    6.90328 #   C
317     1    1    0.00000    7.18249   16.12449    6.08490 #   C
318     1    1    0.00000    8.52800   17.64812    7.12472 #   C
319     1    1    0.00000    8.97330   18.93828    7.27877 #   C
320     1    1    0.00000    9.36564   21.57635    7.94551 #   C
321     1    1    0.00000    9.45951   22.89779    8.60021 #   C
322     1    1    0.00000    8.44376   23.78357    8.85776 #   C
323     1    2    0.41000    7.43282   23.56934    8.48949 #   H
324     1    1    0.00000   10.77373   23.18422    9.07920 #   C
325     1    2    0.41000   14.10983   19.76628   10.58839 #   H
326     1    1    0.00000   14.54550   22.96278   11.63062 #   C
327     1    1    0.00000   16.12449   21.40064   14.52865 #   C
328     1    1    0.00000   17.30392   20.81333   14.79342 #   C
329     1    2    0.41000   17.89845   20.33674   14.00393 #   H
330     1    2    0.41000   20.12733   19.49911   13.74878 #   H
331     1    2    0.41000   21.59801   17.55184   13.45032 #   H
332     1    1    0.00000   21.00830   17.16672   16.79123 #   C
333     1    1    0.00000   19.98051   17.98510   19.21749 #   C
334     1    1    0.00000   18.21377   20.13215   18.89736 #   C
335     1    1    0.00000   15.89101   20.03346   19.29933 #   C
336     1    2    0.41000   14.00393   17.89845   20.33674 #   H
337     1    1    0.00000   17.16672   16.79123   21.00830 #   C
338     1    1    0.00000   18.94068   14.63697   20.42099 #   C
339     1    2    0.41000   19.49911   13.74878   20.12733 #   H
340     2    1    0.00000    3.41553   23.18182   21.70151 #   C
341     2    1    0.00000    2.16149   22.82317   22.08904 #   C
342     2    1    0.00000    1.50438   21.93258   23.10239 #   C
343     2    1    0.00000    0.06740   22.14199   22.90501 #   C
344     2    1    0.00000    1.10722   23.66562   21.55950 #   C
345     2    2    0.41000    4.30372   22.62339   21.99517 #   H
346     3    1    0.00000   23.18182   21.70151    3.41553 #   C
347     3    2    0.41000   22.62339   21.99517    4.30372 #   H
348     3    1    0.00000   22.82317   22.08904    2.16149 #   C
349     3    1    0.00000   21.93258   23.10239    1.50438 #   C
350     3    1    0.00000   22.14199   22.90501    0.06740 #   C
351     3    1    0.00000   23.66562   21.55950    1.10722 #   C
352     4    1    0.00000   21.70151    3.41553   23.18182 #   C
353     4    1    0.00000   22.08904    2.16149   22.82317 #   C
354     4    1    0.00000   21.55950    1.10722   23.66562 #   C
355     4    1    0.00000   23.10239    1.50438   21.93258 #   C
356     4    1    0.00000   22.90501    0.06740   22.14199 #   C
357     4    2    0.41000   21.99517    4.30372   22.62339 #   H
358     5    1    0.00000   23.22514   21.99035   23.90873 #   C
359     6    1    0.00000   23.90873   23.22514   21.99035 #   C
360     7    1    0.00000   21.99035   23.90873   23.22514 #   C


Bonds

1       1   86  144 #  C: C
2       2  259  355 #  C: H
3       1  148   95 #  C: C
4       1  211  259 #  C: C
5       1  211  187 #  C: C
6       2   24  302 #  C: H
7       1   24  288 #  C: C
8       1  119  155 #  C: C
9       1  119  239 #  C: C
10      1  259   52 #  C: C
11      1  155   90 #  C: C
12      1  192  288 #  C: C
13      1  192  216 #  C: C
14      1   47  239 #  C: C
15      2   47  328 #  C: H
16      1  138   95 #  C: C
17      1  138  232 #  C: C
18      1  115  235 #  C: C
19      1   95  150 #  C: C
20      1  288   72 #  C: C
21      1  239  136 #  C: C
22      1  187  283 #  C: C
23      2    7  300 #  C: H
24      1  144  235 #  C: C
25      2   31  324 #  C: H
26      1  216  264 #  C: C
27      1   90  150 #  C: C
28      1   90  136 #  C: C
29      1   52  268 #  C: C
30      1   52   67 #  C: C
31      2  252  348 #  C: H
32      1  232   40 #  C: C
33      1  232  112 #  C: C
34      2   40  330 #  C: H
35      1  150  112 #  C: C
36      1  136  208 #  C: C
37      1  235   43 #  C: C
38      2  256  352 #  C: H
39      1   40   16 #  C: C
40      1    7   31 #  C: C
41      1    7  271 #  C: C
42      2    4  294 #  C: H
43      1   72  252 #  C: C
44      1   72   60 #  C: C
45      1  112  184 #  C: C
46      1  283   67 #  C: C
47      1  283   19 #  C: C
48      1  268    4 #  C: C
49      1  268  172 #  C: C
50      1   31  223 #  C: C
51      1   67  244 #  C: C
52      1  208  256 #  C: C
53      1  208  184 #  C: C
54      1  252  204 #  C: C
55      1  256   55 #  C: C
56      1    4   28 #  C: C
57      1  184  280 #  C: C
58      1  172  196 #  C: C
59      1  172  100 #  C: C
60      1   16  280 #  C: C
61      2   16  306 #  C: H
62      1  244  196 #  C: C
63      2  244  340 #  C: H
64      1  264   60 #  C: C
65      2  264  360 #  C: H
66      1  196  124 #  C: C
67      1   55  271 #  C: C
68      1   55   64 #  C: C
69      2   43  336 #  C: H
70      1  280   64 #  C: C
71      1  271  175 #  C: C
72      1  100  162 #  C: C
73      1  100  220 #  C: C
74      1   60  276 #  C: C
75      2   19  312 #  C: H
76      2   28  318 #  C: H
77      1   28  220 #  C: C
78      1  223  132 #  C: C
79      1  223  103 #  C: C
80      1  124   78 #  C: C
81      1  124  227 #  C: C
82      1  162   78 #  C: C
83      1  162   83 #  C: C
84      1  220  126 #  C: C
85      1   78  167 #  C: C
86      1   64  247 #  C: C
87      1  204  132 #  C: C
88      1  204  180 #  C: C
89      1  132   74 #  C: C
90      2   35  316 #  C: H
91      1  175  103 #  C: C
92      1  175  199 #  C: C
93      1  227   35 #  C: C
94      1  227  107 #  C: C
95      1  276  180 #  C: C
96      1  276   12 #  C: C
97      1   83  126 #  C: C
98      1   83  160 #  C: C
99      1  103  157 #  C: C
100     1  126  198 #  C: C
101     1   35   11 #  C: C
102     1  180  108 #  C: C
103     1  167  107 #  C: C
104     1  167   76 #  C: C
105     1  247  199 #  C: C
106     2  247  343 #  C: H
107     2   12  290 #  C: H
108     1  107  179 #  C: C
109     1   12   36 #  C: C
110     1  199  127 #  C: C
111     1  160   76 #  C: C
112     1  160  102 #  C: C
113     1   74  157 #  C: C
114     1   74  165 #  C: C
115     1   76  131 #  C: C
116     2  246  342 #  C: H
117     1  157   84 #  C: C
118     1  198  246 #  C: C
119     1  198  174 #  C: C
120     2   11  292 #  C: H
121     1   11  275 #  C: C
122     1  108  165 #  C: C
123     1  108  228 #  C: C
124     1  246   61 #  C: C
125     1  165   79 #  C: C
126     1  179  275 #  C: C
127     1  179  203 #  C: C
128     1   36  228 #  C: C
129     2   36  314 #  C: H
130     1  127   84 #  C: C
131     1  127  218 #  C: C
132     1  102  174 #  C: C
133     1  102  222 #  C: C
134     1   84  161 #  C: C
135     1  275   59 #  C: C
136     1  228  122 #  C: C
137     1  174  270 #  C: C
138     2   20  310 #  C: H
139     1  131  203 #  C: C
140     1  131  222 #  C: C
141     2   44  334 #  C: H
142     1  203  251 #  C: C
143     1   79  161 #  C: C
144     1   79  122 #  C: C
145     1   61  277 #  C: C
146     1   61   54 #  C: C
147     2  262  358 #  C: H
148     1  218   26 #  C: C
149     1  218   98 #  C: C
150     2   26  319 #  C: H
151     1  161   98 #  C: C
152     1  122  194 #  C: C
153     1  222   30 #  C: C
154     2  242  338 #  C: H
155     1   26    2 #  C: C
156     1   20  284 #  C: C
157     2   13  305 #  C: H
158     1   59  262 #  C: C
159     1   59   70 #  C: C
160     1   98  170 #  C: C
161     1  270   54 #  C: C
162     1  270    6 #  C: C
163     1  277   13 #  C: C
164     1  277  181 #  C: C
165     1   44  236 #  C: C
166     1   54  253 #  C: C
167     1  194  242 #  C: C
168     1  194  170 #  C: C
169     1  262  214 #  C: C
170     1  242   68 #  C: C
171     1  170  266 #  C: C
172     1  181  205 #  C: C
173     1    2  266 #  C: C
174     2    2  295 #  C: H
175     1  253  205 #  C: C
176     2  253  349 #  C: H
177     1  251   70 #  C: C
178     2  251  347 #  C: H
179     1  205  133 #  C: C
180     1   68  284 #  C: C
181     1   68   50 #  C: C
182     1   30    6 #  C: C
183     2   30  323 #  C: H
184     1  266   50 #  C: C
185     1  284  188 #  C: C
186     1  109  151 #  C: C
187     1  109  229 #  C: C
188     1   70  286 #  C: C
189     2    6  299 #  C: H
190     2   37  329 #  C: H
191     1   37  229 #  C: C
192     1  236  142 #  C: C
193     1  236  116 #  C: C
194     1  133   89 #  C: C
195     1  133  237 #  C: C
196     1  151   93 #  C: C
197     1  229  137 #  C: C
198     1   50  260 #  C: C
199     1  214  142 #  C: C
200     1  214  190 #  C: C
201     1  142   87 #  C: C
202     2   45  325 #  C: H
203     1  188  212 #  C: C
204     1  237   45 #  C: C
205     1  237  117 #  C: C
206     1  286  190 #  C: C
207     1  286   22 #  C: C
208     1   93  137 #  C: C
209     1   93  146 #  C: C
210     1  116  147 #  C: C
211     1  137  209 #  C: C
212     1   45   21 #  C: C
213     1  190  118 #  C: C
214     1  156   85 #  C: C
215     1  260  212 #  C: C
216     2  260  356 #  C: H
217     2   22  303 #  C: H
218     1  117  189 #  C: C
219     1   22   46 #  C: C
220     1  212  140 #  C: C
221     1  146   85 #  C: C
222     1  146  113 #  C: C
223     1   87  147 #  C: C