|===============================================================================
|
|  DFTB+ release 23.1
|
|  Copyright (C) 2006 - 2023  DFTB+ developers group
|
|===============================================================================
|
|  When publishing results obtained with DFTB+, please cite the following
|  reference:
|
|  * DFTB+, a software package for efficient approximate density functional
|    theory based atomistic simulations, J. Chem. Phys. 152, 124101 (2020).
|    [doi: 10.1063/1.5143190]
|
|  You should also cite additional publications crediting the parametrization
|  data you use. Please consult the documentation of the SK-files for the
|  references.
|
|===============================================================================

Reading input file 'dftb_in.hsd'
Parser version: 13

--------------------------------------------------------------------------------
***  Converting input from parser version  8 to parser version 13 ...
***  Done.

Reading SK-files:
./mio-1-1/C-C.skf
./mio-1-1/C-N.skf
./mio-1-1/N-N.skf
Done.


Processed input in HSD format written to 'dftb_pin.hsd'

Starting initialization...
--------------------------------------------------------------------------------
MPI processes:               1
OpenMP threads:              1
BLACS orbital grid size:     1 x 1
BLACS atom grid size:        1 x 1
Specified random seed:       195828608
Current stacksize:           8 [Mb] (recommended: unlimited)
WARNING!
-> Current stacksize not set to unlimited or hard limit, which might cause
   random crashes (e.g. segmentation faults). It is advised to unlimit the
   stacksize by issuing 'ulimit -s unlimited' (Linux) or setting it to the 
   hard limit by 'ulimit -s hard' (Mac) in advance.
Mode:                        MD with re-selection of velocities according to temperature
                             (a.k.a. NPT ensemble using Andersen thermostating + Berensen barostat)
Self consistent charges:     No
Spin polarisation:           No
Nr. of up electrons:           157.000000
Nr. of down electrons:         157.000000
Periodic boundaries:         Yes
Electronic solver:           Relatively robust
Time step:                     0.826827E+02
Rescaling probability:         0.200000E+00
Included shells:             C:  s, p
                             N:  s, p
K-points and weights:           1:  0.000000  0.000000  0.000000     1.000000

K-points in absolute space:     1:  0.000000  0.000000  0.000000

Extra options:
Force type                   original

--------------------------------------------------------------------------------

***  Geometry step: 0


Total Energy:                     -136.1042171249 H        -3703.5842 eV
Extrapolated to 0K:               -136.1042171250 H        -3703.5842 eV
Total Mermin free energy:         -136.1042171250 H        -3703.5842 eV
Force related energy:             -136.1037374209 H        -3703.5711 eV

Volume:                              0.141134E+06 au^3   0.209139E+05 A^3
Electronic Temperature:              0.0003166815 H          100.0000 K
MD Temperature:                      0.0003109544 H           98.1915 K
MD Kinetic Energy:                   0.0359152314 H            0.9773 eV
Total MD Energy:                  -136.0683018935 H        -3702.6069 eV
Pressure:                           -0.150095E-05 au    -0.441594E+08 Pa

--------------------------------------------------------------------------------

***  Geometry step: 1


Total Energy:                     -136.1008214364 H        -3703.4918 eV
Extrapolated to 0K:               -136.1008214366 H        -3703.4918 eV
Total Mermin free energy:         -136.1008214368 H        -3703.4918 eV
Force related energy:             -136.1003417327 H        -3703.4787 eV

Volume:                              0.141134E+06 au^3   0.209139E+05 A^3
Electronic Temperature:              0.0003477163 H          109.8000 K
MD Temperature:                      0.0002864247 H           90.4456 K
MD Kinetic Energy:                   0.0330820496 H            0.9002 eV
Total MD Energy:                  -136.0677393872 H        -3702.5916 eV
Pressure:                           -0.138462E-05 au    -0.407369E+08 Pa

--------------------------------------------------------------------------------

***  Geometry step: 2


Total Energy:                     -136.0967754984 H        -3703.3817 eV
Extrapolated to 0K:               -136.0967754992 H        -3703.3817 eV
Total Mermin free energy:         -136.0967754999 H        -3703.3817 eV
Force related energy:             -136.0962957959 H        -3703.3686 eV

Volume:                              0.141134E+06 au^3   0.209139E+05 A^3
Electronic Temperature:              0.0003787511 H          119.6000 K
MD Temperature:                      0.0002748806 H           86.8003 K
MD Kinetic Energy:                   0.0317487148 H            0.8639 eV
Total MD Energy:                  -136.0650267852 H        -3702.5178 eV
Pressure:                           -0.114398E-05 au    -0.336571E+08 Pa

--------------------------------------------------------------------------------

***  Geometry step: 3


Total Energy:                     -136.1014337647 H        -3703.5084 eV
Extrapolated to 0K:               -136.1014337653 H        -3703.5084 eV
Total Mermin free energy:         -136.1014337660 H        -3703.5084 eV
Force related energy:             -136.1009540620 H        -3703.4954 eV

Volume:                              0.141134E+06 au^3   0.209139E+05 A^3
Electronic Temperature:              0.0004097859 H          129.4000 K
MD Temperature:                      0.0003246439 H          102.5143 K
MD Kinetic Energy:                   0.0374963677 H            1.0203 eV
Total MD Energy:                  -136.0639373983 H        -3702.4881 eV
Pressure:                           -0.907354E-06 au    -0.266953E+08 Pa

--------------------------------------------------------------------------------

***  Geometry step: 4


Total Energy:                     -136.1080781231 H        -3703.6892 eV
Extrapolated to 0K:               -136.1080781234 H        -3703.6892 eV
Total Mermin free energy:         -136.1080781237 H        -3703.6892 eV
Force related energy:             -136.1075984197 H        -3703.6762 eV

Volume:                              0.141134E+06 au^3   0.209139E+05 A^3
Electronic Temperature:              0.0004408207 H          139.2000 K
MD Temperature:                      0.0003377258 H          106.6453 K
MD Kinetic Energy:                   0.0390073356 H            1.0614 eV
Total MD Energy:                  -136.0690707881 H        -3702.6278 eV
Pressure:                           -0.650072E-06 au    -0.191258E+08 Pa

--------------------------------------------------------------------------------

***  Geometry step: 5


Total Energy:                     -136.1073443361 H        -3703.6693 eV
Extrapolated to 0K:               -136.1073443365 H        -3703.6693 eV
Total Mermin free energy:         -136.1073443368 H        -3703.6693 eV
Force related energy:             -136.1068646328 H        -3703.6562 eV

Volume:                              0.141134E+06 au^3   0.209139E+05 A^3
Electronic Temperature:              0.0004718555 H          149.0000 K
MD Temperature:                      0.0004189163 H          132.2832 K
MD Kinetic Energy:                   0.0483848338 H            1.3166 eV
Total MD Energy:                  -136.0589595030 H        -3702.3527 eV
Pressure:                           -0.476652E-06 au    -0.140236E+08 Pa

--------------------------------------------------------------------------------

***  Geometry step: 6


Total Energy:                     -136.1019506115 H        -3703.5225 eV
Extrapolated to 0K:               -136.1019506117 H        -3703.5225 eV
Total Mermin free energy:         -136.1019506120 H        -3703.5225 eV
Force related energy:             -136.1014709080 H        -3703.5095 eV

Volume:                              0.141134E+06 au^3   0.209139E+05 A^3
Electronic Temperature:              0.0005028903 H          158.8000 K
MD Temperature:                      0.0004248630 H          134.1610 K
MD Kinetic Energy:                   0.0490716769 H            1.3353 eV
Total MD Energy:                  -136.0528789351 H        -3702.1872 eV
Pressure:                           -0.153399E-06 au    -0.451316E+07 Pa

--------------------------------------------------------------------------------

***  Geometry step: 7


Total Energy:                     -136.1003112948 H        -3703.4779 eV
Extrapolated to 0K:               -136.1003112949 H        -3703.4779 eV
Total Mermin free energy:         -136.1003112951 H        -3703.4779 eV
Force related energy:             -136.0998315911 H        -3703.4648 eV

Volume:                              0.141134E+06 au^3   0.209139E+05 A^3
Electronic Temperature:              0.0005339251 H          168.6000 K
MD Temperature:                      0.0003951531 H          124.7793 K
MD Kinetic Energy:                   0.0456401875 H            1.2419 eV
Total MD Energy:                  -136.0546711077 H        -3702.2360 eV
Pressure:                            0.270935E-07 au     0.797117E+06 Pa

--------------------------------------------------------------------------------

***  Geometry step: 8


Total Energy:                     -136.1033965786 H        -3703.5619 eV
Extrapolated to 0K:               -136.1033965789 H        -3703.5619 eV
Total Mermin free energy:         -136.1033965793 H        -3703.5619 eV
Force related energy:             -136.1029168753 H        -3703.5488 eV

Volume:                              0.141134E+06 au^3   0.209139E+05 A^3
Electronic Temperature:              0.0005649599 H          178.4000 K
MD Temperature:                      0.0004438652 H          140.1614 K
MD Kinetic Energy:                   0.0512664346 H            1.3950 eV
Total MD Energy:                  -136.0521301447 H        -3702.1668 eV
Pressure:                            0.846188E-07 au     0.248957E+07 Pa

--------------------------------------------------------------------------------

***  Geometry step: 9


Total Energy:                     -136.1024349142 H        -3703.5357 eV
Extrapolated to 0K:               -136.1024349154 H        -3703.5357 eV
Total Mermin free energy:         -136.1024349165 H        -3703.5357 eV
Force related energy:             -136.1019552125 H        -3703.5226 eV

Volume:                              0.141134E+06 au^3   0.209139E+05 A^3
Electronic Temperature:              0.0005959946 H          188.2000 K
MD Temperature:                      0.0004029949 H          127.2556 K
MD Kinetic Energy:                   0.0465459087 H            1.2666 eV
Total MD Energy:                  -136.0558890079 H        -3702.2691 eV
Pressure:                            0.828056E-07 au     0.243622E+07 Pa

--------------------------------------------------------------------------------

***  Geometry step: 10


Total Energy:                     -136.0977603892 H        -3703.4085 eV
Extrapolated to 0K:               -136.0977603911 H        -3703.4085 eV
Total Mermin free energy:         -136.0977603929 H        -3703.4085 eV
Force related energy:             -136.0972806889 H        -3703.3954 eV

Volume:                              0.141134E+06 au^3   0.209139E+05 A^3
Electronic Temperature:              0.0006270294 H          198.0000 K
MD Temperature:                      0.0004148418 H          130.9965 K
MD Kinetic Energy:                   0.0479142290 H            1.3038 eV
Total MD Energy:                  -136.0498461638 H        -3702.1047 eV
Pressure:                            0.376061E-07 au     0.110641E+07 Pa

--------------------------------------------------------------------------------

***  Geometry step: 11


Total Energy:                     -136.1001308972 H        -3703.4730 eV
Extrapolated to 0K:               -136.1001309003 H        -3703.4730 eV
Total Mermin free energy:         -136.1001309035 H        -3703.4730 eV
Force related energy:             -136.0996511995 H        -3703.4599 eV

Volume:                              0.141134E+06 au^3   0.209139E+05 A^3
Electronic Temperature:              0.0006580642 H          207.8000 K
MD Temperature:                      0.0004578936 H          144.5912 K
MD Kinetic Energy:                   0.0528867153 H            1.4391 eV
Total MD Energy:                  -136.0472441882 H        -3702.0339 eV
Pressure:                           -0.479259E-07 au    -0.141003E+07 Pa

--------------------------------------------------------------------------------

***  Geometry step: 12


Total Energy:                     -136.1041308815 H        -3703.5818 eV
Extrapolated to 0K:               -136.1041308855 H        -3703.5818 eV
Total Mermin free energy:         -136.1041308896 H        -3703.5818 eV
Force related energy:             -136.1036511856 H        -3703.5688 eV

Volume:                              0.141134E+06 au^3   0.209139E+05 A^3
Electronic Temperature:              0.0006890990 H          217.6000 K
MD Temperature:                      0.0005099269 H          161.0220 K
MD Kinetic Energy:                   0.0588965535 H            1.6027 eV
Total MD Energy:                  -136.0452343361 H        -3701.9792 eV
Pressure:                           -0.431027E-07 au    -0.126812E+07 Pa

--------------------------------------------------------------------------------

***  Geometry step: 13


Total Energy:                     -136.1043828537 H        -3703.5887 eV
Extrapolated to 0K:               -136.1043828605 H        -3703.5887 eV
Total Mermin free energy:         -136.1043828673 H        -3703.5887 eV
Force related energy:             -136.1039031633 H        -3703.5756 eV

Volume:                              0.141134E+06 au^3   0.209139E+05 A^3
Electronic Temperature:              0.0007201338 H          227.4000 K
MD Temperature:                      0.0005668780 H          179.0057 K
MD Kinetic Energy:                   0.0654744073 H            1.7816 eV
Total MD Energy:                  -136.0389084600 H        -3701.8070 eV
Pressure:                            0.676105E-07 au     0.198917E+07 Pa

--------------------------------------------------------------------------------

***  Geometry step: 14


Total Energy:                     -136.1035532296 H        -3703.5661 eV
Extrapolated to 0K:               -136.1035532393 H        -3703.5661 eV
Total Mermin free energy:         -136.1035532490 H        -3703.5661 eV
Force related energy:             -136.1030735450 H        -3703.5531 eV

Volume:                              0.141134E+06 au^3   0.209139E+05 A^3
Electronic Temperature:              0.0007511686 H          237.2000 K
MD Temperature:                      0.0005702935 H          180.0842 K
MD Kinetic Energy:                   0.0658689005 H            1.7924 eV
Total MD Energy:                  -136.0376843486 H        -3701.7737 eV
Pressure:                            0.353456E-07 au     0.103990E+07 Pa

--------------------------------------------------------------------------------

***  Geometry step: 15


Total Energy:                     -136.1036953167 H        -3703.5700 eV
Extrapolated to 0K:               -136.1036953325 H        -3703.5700 eV
Total Mermin free energy:         -136.1036953483 H        -3703.5700 eV
Force related energy:             -136.1032156443 H        -3703.5569 eV

Volume:                              0.141134E+06 au^3   0.209139E+05 A^3
Electronic Temperature:              0.0007822034 H          247.0000 K
MD Temperature:                      0.0005766632 H          182.0956 K
MD Kinetic Energy:                   0.0666045997 H            1.8124 eV
Total MD Energy:                  -136.0370907486 H        -3701.7576 eV
Pressure:                           -0.152585E-06 au    -0.448920E+07 Pa

--------------------------------------------------------------------------------

***  Geometry step: 16


Total Energy:                     -136.1015024379 H        -3703.5103 eV
Extrapolated to 0K:               -136.1015024653 H        -3703.5103 eV
Total Mermin free energy:         -136.1015024927 H        -3703.5103 eV
Force related energy:             -136.1010227887 H        -3703.4973 eV

Volume:                              0.141134E+06 au^3   0.209139E+05 A^3
Electronic Temperature:              0.0008132382 H          256.8000 K
MD Temperature:                      0.0005908649 H          186.5801 K
MD Kinetic Energy:                   0.0682448921 H            1.8570 eV
Total MD Energy:                  -136.0332576006 H        -3701.6533 eV
Pressure:                           -0.215498E-06 au    -0.634018E+07 Pa

--------------------------------------------------------------------------------

***  Geometry step: 17


Total Energy:                     -136.1030401293 H        -3703.5522 eV
Extrapolated to 0K:               -136.1030401704 H        -3703.5522 eV
Total Mermin free energy:         -136.1030402114 H        -3703.5522 eV
Force related energy:             -136.1025605074 H        -3703.5391 eV

Volume:                              0.141134E+06 au^3   0.209139E+05 A^3
Electronic Temperature:              0.0008442730 H          266.6000 K
MD Temperature:                      0.0006701575 H          211.6188 K
MD Kinetic Energy:                   0.0774031923 H            2.1062 eV
Total MD Energy:                  -136.0256370191 H        -3701.4459 eV
Pressure:                           -0.330768E-06 au    -0.973152E+07 Pa

--------------------------------------------------------------------------------

***  Geometry step: 18


Total Energy:                     -136.0990239182 H        -3703.4429 eV
Extrapolated to 0K:               -136.0990239766 H        -3703.4429 eV
Total Mermin free energy:         -136.0990240350 H        -3703.4429 eV
Force related energy:             -136.0985443310 H        -3703.4298 eV

Volume:                              0.141134E+06 au^3   0.209139E+05 A^3
Electronic Temperature:              0.0008753078 H          276.4000 K
MD Temperature:                      0.0007352845 H          232.1842 K
MD Kinetic Energy:                   0.0849253609 H            2.3109 eV
Total MD Energy:                  -136.0140986741 H        -3701.1319 eV
Pressure:                           -0.410633E-06 au    -0.120812E+08 Pa

--------------------------------------------------------------------------------

***  Geometry step: 19


Total Energy:                     -136.0898251849 H        -3703.1926 eV
Extrapolated to 0K:               -136.0898252480 H        -3703.1926 eV
Total Mermin free energy:         -136.0898253112 H        -3703.1926 eV
Force related energy:             -136.0893456072 H        -3703.1795 eV

Volume:                              0.141134E+06 au^3   0.209139E+05 A^3
Electronic Temperature:              0.0009063426 H          286.2000 K
MD Temperature:                      0.0006929984 H          218.8313 K
MD Kinetic Energy:                   0.0800413142 H            2.1780 eV
Total MD Energy:                  -136.0097839970 H        -3701.0145 eV
Pressure:                           -0.482832E-06 au    -0.142054E+08 Pa

--------------------------------------------------------------------------------

***  Geometry step: 20


Total Energy:                     -136.0883217474 H        -3703.1516 eV
Extrapolated to 0K:               -136.0883218349 H        -3703.1517 eV
Total Mermin free energy:         -136.0883219224 H        -3703.1517 eV
Force related energy:             -136.0878422185 H        -3703.1386 eV

Volume:                              0.141134E+06 au^3   0.209139E+05 A^3
Electronic Temperature:              0.0009373773 H          296.0000 K
MD Temperature:                      0.0006817563 H          215.2813 K
MD Kinetic Energy:                   0.0787428479 H            2.1427 eV
Total MD Energy:                  -136.0095790745 H        -3701.0090 eV
Pressure:                           -0.577998E-06 au    -0.170053E+08 Pa

--------------------------------------------------------------------------------

***  Geometry step: 21


Total Energy:                     -136.0864211710 H        -3703.0999 eV
Extrapolated to 0K:               -136.0864213072 H        -3703.0999 eV
Total Mermin free energy:         -136.0864214434 H        -3703.0999 eV
Force related energy:             -136.0859417394 H        -3703.0869 eV

Volume:                              0.141134E+06 au^3   0.209139E+05 A^3
Electronic Temperature:              0.0009684121 H          305.8000 K
MD Temperature:                      0.0006918042 H          218.4542 K
MD Kinetic Energy:                   0.0799033884 H            2.1743 eV
Total MD Energy:                  -136.0065180550 H        -3700.9257 eV
Pressure:                           -0.581231E-06 au    -0.171004E+08 Pa

--------------------------------------------------------------------------------

***  Geometry step: 22


Total Energy:                     -136.0878899325 H        -3703.1399 eV
Extrapolated to 0K:               -136.0878901548 H        -3703.1399 eV
Total Mermin free energy:         -136.0878903771 H        -3703.1399 eV
Force related energy:             -136.0874106731 H        -3703.1269 eV

Volume:                              0.141134E+06 au^3   0.209139E+05 A^3
Electronic Temperature:              0.0009994469 H          315.6000 K
MD Temperature:                      0.0007564592 H          238.8706 K
MD Kinetic Energy:                   0.0873710328 H            2.3775 eV
Total MD Energy:                  -136.0005193443 H        -3700.7624 eV
Pressure:                           -0.751178E-06 au    -0.221004E+08 Pa

--------------------------------------------------------------------------------

***  Geometry step: 23


Total Energy:                     -136.0879919461 H        -3703.1427 eV
Extrapolated to 0K:               -136.0879922321 H        -3703.1427 eV
Total Mermin free energy:         -136.0879925182 H        -3703.1427 eV
Force related energy:             -136.0875128142 H        -3703.1296 eV

Volume:                              0.141134E+06 au^3   0.209139E+05 A^3
Electronic Temperature:              0.0010304817 H          325.4000 K
MD Temperature:                      0.0008295045 H          261.9365 K
MD Kinetic Energy:                   0.0958077745 H            2.6071 eV
Total MD Energy:                  -135.9921847437 H        -3700.5356 eV
Pressure:                           -0.885713E-06 au    -0.260586E+08 Pa

--------------------------------------------------------------------------------

***  Geometry step: 24


Total Energy:                     -136.0771898654 H        -3702.8487 eV
Extrapolated to 0K:               -136.0771905074 H        -3702.8488 eV
Total Mermin free energy:         -136.0771911495 H        -3702.8488 eV
Force related energy:             -136.0767114455 H        -3702.8357 eV

Volume:                              0.141134E+06 au^3   0.209139E+05 A^3
Electronic Temperature:              0.0010615165 H          335.2000 K
MD Temperature:                      0.0007609249 H          240.2808 K
MD Kinetic Energy:                   0.0878868208 H            2.3915 eV
Total MD Energy:                  -135.9893043286 H        -3700.4572 eV
Pressure:                           -0.797734E-06 au    -0.234701E+08 Pa

--------------------------------------------------------------------------------

***  Geometry step: 25


Total Energy:                     -136.0679572152 H        -3702.5975 eV
Extrapolated to 0K:               -136.0679587208 H        -3702.5975 eV
Total Mermin free energy:         -136.0679602264 H        -3702.5976 eV
Force related energy:             -136.0674805225 H        -3702.5845 eV

Volume:                              0.141134E+06 au^3   0.209139E+05 A^3
Electronic Temperature:              0.0010925513 H          345.0000 K
MD Temperature:                      0.0007402519 H          233.7528 K
MD Kinetic Energy:                   0.0854990896 H            2.3265 eV
Total MD Energy:                  -135.9824611369 H        -3700.2710 eV
Pressure:                           -0.732313E-06 au    -0.215454E+08 Pa

--------------------------------------------------------------------------------

***  Geometry step: 26


Total Energy:                     -136.0649113144 H        -3702.5146 eV
Extrapolated to 0K:               -136.0649143455 H        -3702.5147 eV
Total Mermin free energy:         -136.0649173766 H        -3702.5148 eV
Force related energy:             -136.0644376727 H        -3702.5017 eV

Volume:                              0.141134E+06 au^3   0.209139E+05 A^3
Electronic Temperature:              0.0011235861 H          354.8000 K
MD Temperature:                      0.0007899980 H          249.4614 K
MD Kinetic Energy:                   0.0912447728 H            2.4829 eV
Total MD Energy:                  -135.9736726039 H        -3700.0319 eV
Pressure:                           -0.755416E-06 au    -0.222251E+08 Pa

--------------------------------------------------------------------------------

***  Geometry step: 27


Total Energy:                     -136.0693429525 H        -3702.6352 eV
Extrapolated to 0K:               -136.0693477253 H        -3702.6353 eV
Total Mermin free energy:         -136.0693524982 H        -3702.6355 eV
Force related energy:             -136.0688727943 H        -3702.6224 eV

Volume:                              0.141134E+06 au^3   0.209139E+05 A^3
Electronic Temperature:              0.0011546209 H          364.6000 K
MD Temperature:                      0.0008666227 H          273.6575 K
MD Kinetic Energy:                   0.1000949197 H            2.7237 eV
Total MD Energy:                  -135.9692575785 H        -3699.9117 eV
Pressure:                           -0.862239E-06 au    -0.253679E+08 Pa

--------------------------------------------------------------------------------

***  Geometry step: 28


Total Energy:                     -136.0618447854 H        -3702.4312 eV
Extrapolated to 0K:               -136.0618500422 H        -3702.4313 eV
Total Mermin free energy:         -136.0618552990 H        -3702.4315 eV
Force related energy:             -136.0613755951 H        -3702.4184 eV

Volume:                              0.141134E+06 au^3   0.209139E+05 A^3
Electronic Temperature:              0.0011856557 H          374.4000 K
MD Temperature:                      0.0009520815 H          300.6432 K
MD Kinetic Energy:                   0.1099654111 H            2.9923 eV
Total MD Energy:                  -135.9518898879 H        -3699.4391 eV
Pressure:                           -0.665955E-06 au    -0.195931E+08 Pa

--------------------------------------------------------------------------------

***  Geometry step: 29


Total Energy:                     -136.0626063714 H        -3702.4519 eV
Extrapolated to 0K:               -136.0626123474 H        -3702.4521 eV
Total Mermin free energy:         -136.0626183233 H        -3702.4522 eV
Force related energy:             -136.0621386194 H        -3702.4392 eV

Volume:                              0.141134E+06 au^3   0.209139E+05 A^3
Electronic Temperature:              0.0012166905 H          384.2000 K
MD Temperature:                      0.0009796493 H          309.3484 K
MD Kinetic Energy:                   0.1131494918 H            3.0790 eV
Total MD Energy:                  -135.9494688315 H        -3699.3733 eV
Pressure:                           -0.554088E-06 au    -0.163018E+08 Pa

--------------------------------------------------------------------------------

***  Geometry step: 30


Total Energy:                     -136.0621713873 H        -3702.4401 eV
Extrapolated to 0K:               -136.0621774039 H        -3702.4402 eV
Total Mermin free energy:         -136.0621834206 H        -3702.4404 eV
Force related energy:             -136.0617037167 H        -3702.4273 eV

Volume:                              0.141134E+06 au^3   0.209139E+05 A^3
Electronic Temperature:              0.0012477252 H          394.0000 K
MD Temperature:                      0.0011667488 H          368.4297 K
MD Kinetic Energy:                   0.1347594869 H            3.6670 eV
Total MD Energy:                  -135.9274239337 H        -3698.7734 eV
Pressure:                           -0.440178E-06 au    -0.129505E+08 Pa

--------------------------------------------------------------------------------

***  Geometry step: 31


Total Energy:                     -136.0586451764 H        -3702.3441 eV
Extrapolated to 0K:               -136.0586513658 H        -3702.3443 eV
Total Mermin free energy:         -136.0586575552 H        -3702.3444 eV
Force related energy:             -136.0581778513 H        -3702.3314 eV

Volume:                              0.141134E+06 au^3   0.209139E+05 A^3
Electronic Temperature:              0.0012787600 H          403.8000 K
MD Temperature:                      0.0012642498 H          399.2181 K
MD Kinetic Energy:                   0.1460208576 H            3.9734 eV
Total MD Energy:                  -135.9126366977 H        -3698.3710 eV
Pressure:                           -0.223993E-06 au    -0.659009E+07 Pa

--------------------------------------------------------------------------------

***  Geometry step: 32


Total Energy:                     -136.0418983155 H        -3701.8884 eV
Extrapolated to 0K:               -136.0419053796 H        -3701.8886 eV
Total Mermin free energy:         -136.0419124436 H        -3701.8888 eV
Force related energy:             -136.0414327397 H        -3701.8757 eV

Volume:                              0.141134E+06 au^3   0.209139E+05 A^3
Electronic Temperature:              0.0013097948 H          413.6000 K
MD Temperature:                      0.0012208433 H          385.5113 K
MD Kinetic Energy:                   0.1410073958 H            3.8370 eV
Total MD Energy:                  -135.9009050478 H        -3698.0518 eV
Pressure:                            0.347969E-07 au     0.102376E+07 Pa

--------------------------------------------------------------------------------

***  Geometry step: 33


Total Energy:                     -136.0238924657 H        -3701.3984 eV
Extrapolated to 0K:               -136.0239015339 H        -3701.3987 eV
Total Mermin free energy:         -136.0239106022 H        -3701.3989 eV
Force related energy:             -136.0234308983 H        -3701.3859 eV

Volume:                              0.141134E+06 au^3   0.209139E+05 A^3
Electronic Temperature:              0.0013408296 H          423.4000 K
MD Temperature:                      0.0010629361 H          335.6483 K
MD Kinetic Energy:                   0.1227691174 H            3.3407 eV
Total MD Energy:                  -135.9011414848 H        -3698.0582 eV
Pressure:                            0.882524E-07 au     0.259647E+07 Pa

--------------------------------------------------------------------------------

***  Geometry step: 34


Total Energy:                     -136.0254268505 H        -3701.4402 eV
Extrapolated to 0K:               -136.0254383877 H        -3701.4405 eV
Total Mermin free energy:         -136.0254499248 H        -3701.4408 eV
Force related energy:             -136.0249702209 H        -3701.4278 eV

Volume:                              0.141134E+06 au^3   0.209139E+05 A^3
Electronic Temperature:              0.0013718644 H          433.2000 K
MD Temperature:                      0.0011401796 H          360.0398 K
MD Kinetic Energy:                   0.1316907474 H            3.5835 eV
Total MD Energy:                  -135.8937591774 H        -3697.8573 eV
Pressure:                           -0.135282E-06 au    -0.398012E+07 Pa

--------------------------------------------------------------------------------

***  Geometry step: 35


Total Energy:                     -136.0364835753 H        -3701.7411 eV
Extrapolated to 0K:               -136.0364947361 H        -3701.7414 eV
Total Mermin free energy:         -136.0365058969 H        -3701.7417 eV
Force related energy:             -136.0360261930 H        -3701.7286 eV

Volume:                              0.141134E+06 au^3   0.209139E+05 A^3
Electronic Temperature:              0.0014028992 H          443.0000 K
MD Temperature:                      0.0013008588 H          410.7782 K
MD Kinetic Energy:                   0.1502491900 H            4.0885 eV
Total MD Energy:                  -135.8862567069 H        -3697.6532 eV
Pressure:                           -0.282950E-06 au    -0.832467E+07 Pa

--------------------------------------------------------------------------------

***  Geometry step: 36


Total Energy:                     -136.0437718599 H        -3701.9394 eV
Extrapolated to 0K:               -136.0437817824 H        -3701.9397 eV
Total Mermin free energy:         -136.0437917049 H        -3701.9399 eV
Force related energy:             -136.0433120010 H        -3701.9269 eV

Volume:                              0.141134E+06 au^3   0.209139E+05 A^3
Electronic Temperature:              0.0014339340 H          452.8000 K
MD Temperature:                      0.0014067461 H          444.2147 K
MD Kinetic Energy:                   0.1624791697 H            4.4213 eV
Total MD Energy:                  -135.8813125352 H        -3697.5186 eV
Pressure:                           -0.385028E-06 au    -0.113279E+08 Pa

--------------------------------------------------------------------------------

***  Geometry step: 37


Total Energy:                     -136.0425399994 H        -3701.9059 eV
Extrapolated to 0K:               -136.0425525921 H        -3701.9062 eV
Total Mermin free energy:         -136.0425651847 H        -3701.9065 eV
Force related energy:             -136.0420854808 H        -3701.8935 eV

Volume:                              0.141134E+06 au^3   0.209139E+05 A^3
Electronic Temperature:              0.0014649688 H          462.6000 K
MD Temperature:                      0.0013300909 H          420.0090 K
MD Kinetic Energy:                   0.1536255042 H            4.1804 eV
Total MD Energy:                  -135.8889396804 H        -3697.7262 eV
Pressure:                           -0.523863E-06 au    -0.154126E+08 Pa

--------------------------------------------------------------------------------

***  Geometry step: 38


Total Energy:                     -136.0319746279 H        -3701.6184 eV
Extrapolated to 0K:               -136.0319955374 H        -3701.6189 eV
Total Mermin free energy:         -136.0320164469 H        -3701.6195 eV
Force related energy:             -136.0315367431 H        -3701.6065 eV

Volume:                              0.141134E+06 au^3   0.209139E+05 A^3
Electronic Temperature:              0.0014960036 H          472.4000 K
MD Temperature:                      0.0012863973 H          406.2116 K
MD Kinetic Energy:                   0.1485788829 H            4.0430 eV
Total MD Energy:                  -135.8834375640 H        -3697.5765 eV
Pressure:                           -0.482071E-06 au    -0.141830E+08 Pa

--------------------------------------------------------------------------------

***  Geometry step: 39


Total Energy:                     -136.0220482293 H        -3701.3483 eV
Extrapolated to 0K:               -136.0220849720 H        -3701.3493 eV
Total Mermin free energy:         -136.0221217146 H        -3701.3503 eV
Force related energy:             -136.0216420107 H        -3701.3372 eV

Volume:                              0.141134E+06 au^3   0.209139E+05 A^3
Electronic Temperature:              0.0015270384 H          482.2000 K
MD Temperature:                      0.0012789947 H          403.8741 K
MD Kinetic Energy:                   0.1477238924 H            4.0198 eV
Total MD Energy:                  -135.8743978222 H        -3697.3305 eV
Pressure:                           -0.404162E-06 au    -0.118908E+08 Pa

--------------------------------------------------------------------------------

***  Geometry step: 40


Total Energy:                     -136.0190278479 H        -3701.2661 eV
Extrapolated to 0K:               -136.0190849213 H        -3701.2676 eV
Total Mermin free energy:         -136.0191419947 H        -3701.2692 eV
Force related energy:             -136.0186622909 H        -3701.2561 eV

Volume:                              0.141134E+06 au^3   0.209139E+05 A^3
Electronic Temperature:              0.0015580731 H          492.0000 K
MD Temperature:                      0.0012718896 H          401.6305 K
MD Kinetic Energy:                   0.1469032482 H            3.9974 eV
Total MD Energy:                  -135.8722387465 H        -3697.2717 eV
Pressure:                           -0.381740E-06 au    -0.112312E+08 Pa

--------------------------------------------------------------------------------

***  Geometry step: 41


Total Energy:                     -136.0241749273 H        -3701.4061 eV
Extrapolated to 0K:               -136.0242502503 H        -3701.4082 eV
Total Mermin free energy:         -136.0243255732 H        -3701.4102 eV
Force related energy:             -136.0238458694 H        -3701.3972 eV

Volume:                              0.141134E+06 au^3   0.209139E+05 A^3
Electronic Temperature:              0.0015891079 H          501.8000 K
MD Temperature:                      0.0014671825 H          463.2990 K
MD Kinetic Energy:                   0.1694595769 H            4.6112 eV
Total MD Energy:                  -135.8548659963 H        -3696.7990 eV
Pressure:                           -0.287551E-06 au    -0.846004E+07 Pa

--------------------------------------------------------------------------------

***  Geometry step: 42


Total Energy:                     -136.0287654040 H        -3701.5310 eV
Extrapolated to 0K:               -136.0288413471 H        -3701.5331 eV
Total Mermin free energy:         -136.0289172901 H        -3701.5352 eV
Force related energy:             -136.0284375863 H        -3701.5221 eV

Volume:                              0.141134E+06 au^3   0.209139E+05 A^3
Electronic Temperature:              0.0016201427 H          511.6000 K
MD Temperature:                      0.0015282002 H          482.5669 K
MD Kinetic Energy:                   0.1765071261 H            4.8030 eV
Total MD Energy:                  -135.8524101640 H        -3696.7322 eV
Pressure:                           -0.302278E-06 au    -0.889331E+07 Pa

--------------------------------------------------------------------------------

***  Geometry step: 43


Total Energy:                     -136.0287972698 H        -3701.5319 eV
Extrapolated to 0K:               -136.0288682152 H        -3701.5338 eV
Total Mermin free energy:         -136.0289391607 H        -3701.5358 eV
Force related energy:             -136.0284594569 H        -3701.5227 eV

Volume:                              0.141134E+06 au^3   0.209139E+05 A^3
Electronic Temperature:              0.0016511775 H          521.4000 K
MD Temperature:                      0.0014995076 H          473.5065 K
MD Kinetic Energy:                   0.1731931289 H            4.7128 eV
Total MD Energy:                  -135.8557460318 H        -3696.8229 eV
Pressure:                           -0.229125E-06 au    -0.674109E+07 Pa

--------------------------------------------------------------------------------

***  Geometry step: 44


Total Energy:                     -136.0182429642 H        -3701.2447 eV
Extrapolated to 0K:               -136.0183143961 H        -3701.2467 eV
Total Mermin free energy:         -136.0183858279 H        -3701.2486 eV
Force related energy:             -136.0179061240 H        -3701.2355 eV

Volume:                              0.141134E+06 au^3   0.209139E+05 A^3
Electronic Temperature:              0.0016822123 H          531.2000 K
MD Temperature:                      0.0013591326 H          429.1796 K
MD Kinetic Energy:                   0.1569798180 H            4.2716 eV
Total MD Energy:                  -135.8614060099 H        -3696.9770 eV
Pressure:                           -0.908257E-07 au    -0.267218E+07 Pa

--------------------------------------------------------------------------------

***  Geometry step: 45


Total Energy:                     -136.0055613919 H        -3700.8996 eV
Extrapolated to 0K:               -136.0056289082 H        -3700.9015 eV
Total Mermin free energy:         -136.0056964245 H        -3700.9033 eV
Force related energy:             -136.0052167206 H        -3700.8902 eV

Volume:                              0.141134E+06 au^3   0.209139E+05 A^3
Electronic Temperature:              0.0017132471 H          541.0000 K
MD Temperature:                      0.0013580669 H          428.8431 K
MD Kinetic Energy:                   0.1568567225 H            4.2683 eV
Total MD Energy:                  -135.8488397020 H        -3696.6350 eV
Pressure:                            0.146190E-06 au     0.430107E+07 Pa

--------------------------------------------------------------------------------

***  Geometry step: 46


Total Energy:                     -136.0087593025 H        -3700.9866 eV
Extrapolated to 0K:               -136.0088286522 H        -3700.9885 eV
Total Mermin free energy:         -136.0088980019 H        -3700.9904 eV
Force related energy:             -136.0084182980 H        -3700.9774 eV

Volume:                              0.141134E+06 au^3   0.209139E+05 A^3
Electronic Temperature:              0.0017442819 H          550.8000 K
MD Temperature:                      0.0013642783 H          430.8045 K
MD Kinetic Energy:                   0.1575741457 H            4.2878 eV
Total MD Energy:                  -135.8513238562 H        -3696.7026 eV
Pressure:                            0.129156E-06 au     0.379989E+07 Pa

--------------------------------------------------------------------------------

***  Geometry step: 47


Total Energy:                     -136.0084813107 H        -3700.9791 eV
Extrapolated to 0K:               -136.0085500550 H        -3700.9810 eV
Total Mermin free energy:         -136.0086187993 H        -3700.9828 eV
Force related energy:             -136.0081390954 H        -3700.9698 eV

Volume:                              0.141134E+06 au^3   0.209139E+05 A^3
Electronic Temperature:              0.0017753167 H          560.6000 K
MD Temperature:                      0.0014208852 H          448.6795 K
MD Kinetic Energy:                   0.1641122432 H            4.4657 eV
Total MD Energy:                  -135.8445065561 H        -3696.5171 eV
Pressure:                            0.119527E-06 au     0.351660E+07 Pa

--------------------------------------------------------------------------------

***  Geometry step: 48


Total Energy:                     -136.0132131312 H        -3701.1078 eV
Extrapolated to 0K:               -136.0132790678 H        -3701.1096 eV
Total Mermin free energy:         -136.0133450044 H        -3701.1114 eV
Force related energy:             -136.0128653006 H        -3701.0984 eV

Volume:                              0.141134E+06 au^3   0.209139E+05 A^3
Electronic Temperature:              0.0018063515 H          570.4000 K
MD Temperature:                      0.0015047513 H          475.1623 K
MD Kinetic Energy:                   0.1737987716 H            4.7293 eV
Total MD Energy:                  -135.8395462328 H        -3696.3821 eV
Pressure:                            0.195924E-06 au     0.576429E+07 Pa

--------------------------------------------------------------------------------

***  Geometry step: 49


Total Energy:                     -136.0055864761 H        -3700.9003 eV
Extrapolated to 0K:               -136.0056838987 H        -3700.9030 eV
Total Mermin free energy:         -136.0057813214 H        -3700.9056 eV
Force related energy:             -136.0053016176 H        -3700.8926 eV

Volume:                              0.141134E+06 au^3   0.209139E+05 A^3
Electronic Temperature:              0.0018373863 H          580.2000 K
MD Temperature:                      0.0015641118 H          493.9068 K
MD Kinetic Energy:                   0.1806549086 H            4.9159 eV
Total MD Energy:                  -135.8251264129 H        -3695.9897 eV
Pressure:                            0.434087E-06 au     0.127713E+08 Pa

--------------------------------------------------------------------------------

***  Geometry step: 50


Total Energy:                     -135.9918966063 H        -3700.5278 eV
Extrapolated to 0K:               -135.9920421305 H        -3700.5317 eV
Total Mermin free energy:         -135.9921876546 H        -3700.5357 eV
Force related energy:             -135.9917079508 H        -3700.5227 eV

Volume:                              0.141134E+06 au^3   0.209139E+05 A^3
Electronic Temperature:              0.0018684211 H          590.0000 K
MD Temperature:                      0.0014888659 H          470.1461 K
MD Kinetic Energy:                   0.1719640112 H            4.6794 eV
Total MD Energy:                  -135.8202236434 H        -3695.8563 eV
Pressure:                            0.658080E-06 au     0.193614E+08 Pa

--------------------------------------------------------------------------------

***  Geometry step: 51


Total Energy:                     -135.9955723058 H        -3700.6278 eV
Extrapolated to 0K:               -135.9957598581 H        -3700.6329 eV
Total Mermin free energy:         -135.9959474103 H        -3700.6380 eV
Force related energy:             -135.9954677064 H        -3700.6250 eV

Volume:                              0.141134E+06 au^3   0.209139E+05 A^3
Electronic Temperature:              0.0018994558 H          599.8000 K
MD Temperature:                      0.0015249495 H          481.5404 K
MD Kinetic Energy:                   0.1761316623 H            4.7928 eV
Total MD Energy:                  -135.8198157481 H        -3695.8452 eV
Pressure:                            0.689186E-06 au     0.202765E+08 Pa

--------------------------------------------------------------------------------

***  Geometry step: 52


Total Energy:                     -135.9953982597 H        -3700.6231 eV
Extrapolated to 0K:               -135.9956113166 H        -3700.6289 eV
Total Mermin free energy:         -135.9958243735 H        -3700.6347 eV
Force related energy:             -135.9953446696 H        -3700.6216 eV

Volume:                              0.141134E+06 au^3   0.209139E+05 A^3
Electronic Temperature:              0.0019304906 H          609.6000 K
MD Temperature:                      0.0016688712 H          526.9872 K
MD Kinetic Energy:                   0.1927546247 H            5.2451 eV
Total MD Energy:                  -135.8030697488 H        -3695.3895 eV
Pressure:                            0.475104E-06 au     0.139780E+08 Pa

--------------------------------------------------------------------------------

***  Geometry step: 53


Total Energy:                     -135.9966000693 H        -3700.6558 eV
Extrapolated to 0K:               -135.9968230194 H        -3700.6618 eV
Total Mermin free energy:         -135.9970459695 H        -3700.6679 eV
Force related energy:             -135.9965662656 H        -3700.6549 eV

Volume:                              0.141134E+06 au^3   0.209139E+05 A^3
Electronic Temperature:              0.0019615254 H          619.4000 K
MD Temperature:                      0.0017405368 H          549.6174 K
MD Kinetic Energy:                   0.2010319997 H            5.4704 eV
Total MD Energy:                  -135.7960139698 H        -3695.1975 eV
Pressure:                            0.242438E-06 au     0.713278E+07 Pa

--------------------------------------------------------------------------------

***  Geometry step: 54


Total Energy:                     -135.9950684392 H        -3700.6141 eV
Extrapolated to 0K:               -135.9952663004 H        -3700.6195 eV
Total Mermin free energy:         -135.9954641616 H        -3700.6249 eV
Force related energy:             -135.9949844577 H        -3700.6118 eV

Volume:                              0.141134E+06 au^3   0.209139E+05 A^3
Electronic Temperature:              0.0019925602 H          629.2000 K
MD Temperature:                      0.0015913030 H          502.4931 K
MD Kinetic Energy:                   0.1837954976 H            5.0013 eV
Total MD Energy:                  -135.8116686640 H        -3695.6235 eV
Pressure:                           -0.760725E-07 au    -0.223813E+07 Pa

--------------------------------------------------------------------------------

***  Geometry step: 55


Total Energy:                     -135.9873993998 H        -3700.4054 eV
Extrapolated to 0K:               -135.9875609334 H        -3700.4098 eV
Total Mermin free energy:         -135.9877224670 H        -3700.4142 eV
Force related energy:             -135.9872427631 H        -3700.4011 eV

Volume:                              0.141134E+06 au^3   0.209139E+05 A^3
Electronic Temperature:              0.0020235950 H          639.0000 K
MD Temperature:                      0.0017218275 H          543.7095 K
MD Kinetic Energy:                   0.1988710751 H            5.4116 eV
Total MD Energy:                  -135.7888513919 H        -3695.0026 eV
Pressure:                           -0.158588E-06 au    -0.466582E+07 Pa

--------------------------------------------------------------------------------

***  Geometry step: 56


Total Energy:                     -135.9845211578 H        -3700.3271 eV
Extrapolated to 0K:               -135.9846930312 H        -3700.3318 eV
Total Mermin free energy:         -135.9848649046 H        -3700.3364 eV
Force related energy:             -135.9843852007 H        -3700.3234 eV

Volume:                              0.141134E+06 au^3   0.209139E+05 A^3
Electronic Temperature:              0.0020546298 H          648.8000 K
MD Temperature:                      0.0018148455 H          573.0822 K
MD Kinetic Energy:                   0.2096146567 H            5.7039 eV
Total MD Energy:                  -135.7752502479 H        -3694.6325 eV
Pressure:                           -0.106240E-06 au    -0.312568E+07 Pa

--------------------------------------------------------------------------------

***  Geometry step: 57


Total Energy:                     -135.9777734022 H        -3700.1435 eV
Extrapolated to 0K:               -135.9779734968 H        -3700.1489 eV
Total Mermin free energy:         -135.9781735914 H        -3700.1544 eV
Force related energy:             -135.9776938875 H        -3700.1413 eV

Volume:                              0.141134E+06 au^3   0.209139E+05 A^3
Electronic Temperature:              0.0020856646 H          658.6000 K
MD Temperature:                      0.0019146058 H          604.5840 K
MD Kinetic Energy:                   0.2211369686 H            6.0174 eV
Total MD Energy:                  -135.7570366228 H        -3694.1369 eV
Pressure:                            0.204088E-06 au     0.600447E+07 Pa

--------------------------------------------------------------------------------

***  Geometry step: 58


Total Energy:                     -135.9859875420 H        -3700.3670 eV
Extrapolated to 0K:               -135.9861881066 H        -3700.3725 eV
Total Mermin free energy:         -135.9863886713 H        -3700.3779 eV
Force related energy:             -135.9859089674 H        -3700.3649 eV

Volume:                              0.141134E+06 au^3   0.209139E+05 A^3
Electronic Temperature:              0.0021166994 H          668.4000 K
MD Temperature:                      0.0018787725 H          593.2687 K
MD Kinetic Energy:                   0.2169982211 H            5.9048 eV
Total MD Energy:                  -135.7693904502 H        -3694.4731 eV
Pressure:                            0.210975E-06 au     0.620711E+07 Pa

--------------------------------------------------------------------------------

***  Geometry step: 59


Total Energy:                     -135.9838588164 H        -3700.3091 eV
Extrapolated to 0K:               -135.9840423501 H        -3700.3141 eV
Total Mermin free energy:         -135.9842258837 H        -3700.3191 eV
Force related energy:             -135.9837461798 H        -3700.3060 eV

Volume:                              0.141134E+06 au^3   0.209139E+05 A^3
Electronic Temperature:              0.0021477342 H          678.2000 K
MD Temperature:                      0.0020320968 H          641.6846 K
MD Kinetic Energy:                   0.2347071800 H            6.3867 eV
Total MD Energy:                  -135.7495187037 H        -3693.9323 eV
Pressure:                            0.293633E-06 au     0.863897E+07 Pa

--------------------------------------------------------------------------------

***  Geometry step: 60


Total Energy:                     -135.9749218547 H        -3700.0659 eV
Extrapolated to 0K:               -135.9750491159 H        -3700.0693 eV
Total Mermin free energy:         -135.9751763771 H        -3700.0728 eV
Force related energy:             -135.9746966732 H        -3700.0598 eV

Volume:                              0.141134E+06 au^3   0.209139E+05 A^3
Electronic Temperature:              0.0021787690 H          688.0000 K
MD Temperature:                      0.0018790524 H          593.3571 K
MD Kinetic Energy:                   0.2170305469 H            5.9057 eV
Total MD Energy:                  -135.7581458302 H        -3694.1671 eV
Pressure:                            0.111253E-06 au     0.327318E+07 Pa

--------------------------------------------------------------------------------

***  Geometry step: 61


Total Energy:                     -135.9759847251 H        -3700.0948 eV
Extrapolated to 0K:               -135.9760809511 H        -3700.0974 eV
Total Mermin free energy:         -135.9761771770 H        -3700.1000 eV
Force related energy:             -135.9756974731 H        -3700.0870 eV

Volume:                              0.141134E+06 au^3   0.209139E+05 A^3
Electronic Temperature:              0.0022098037 H          697.8000 K
MD Temperature:                      0.0019929141 H          629.3117 K
MD Kinetic Energy:                   0.2301815740 H            6.2636 eV
Total MD Energy:                  -135.7459956030 H        -3693.8365 eV
Pressure:                            0.374370E-06 au     0.110143E+08 Pa

--------------------------------------------------------------------------------

***  Geometry step: 62


Total Energy:                     -135.9676925800 H        -3699.8692 eV
Extrapolated to 0K:               -135.9677964255 H        -3699.8720 eV
Total Mermin free energy:         -135.9679002709 H        -3699.8748 eV
Force related energy:             -135.9674205670 H        -3699.8618 eV

Volume:                              0.141134E+06 au^3   0.209139E+05 A^3
Electronic Temperature:              0.0022408385 H          707.6000 K
MD Temperature:                      0.0016247300 H          513.0486 K
MD Kinetic Energy:                   0.1876563197 H            5.1064 eV
Total MD Energy:                  -135.7802439512 H        -3694.7684 eV
Pressure:                            0.594397E-06 au     0.174877E+08 Pa

--------------------------------------------------------------------------------

***  Geometry step: 63


Total Energy:                     -135.9690411519 H        -3699.9059 eV
Extrapolated to 0K:               -135.9691878172 H        -3699.9098 eV
Total Mermin free energy:         -135.9693344826 H        -3699.9138 eV
Force related energy:             -135.9688547787 H        -3699.9008 eV

Volume:                              0.141134E+06 au^3   0.209139E+05 A^3
Electronic Temperature:              0.0022718733 H          717.4000 K
MD Temperature:                      0.0017191939 H          542.8779 K
MD Kinetic Energy:                   0.1985668962 H            5.4033 eV
Total MD Energy:                  -135.7707675863 H        -3694.5106 eV
Pressure:                            0.608965E-06 au     0.179164E+08 Pa

--------------------------------------------------------------------------------

***  Geometry step: 64


Total Energy:                     -135.9800482095 H        -3700.2054 eV
Extrapolated to 0K:               -135.9802576211 H        -3700.2111 eV
Total Mermin free energy:         -135.9804670328 H        -3700.2168 eV
Force related energy:             -135.9799873289 H        -3700.2037 eV

Volume:                              0.141134E+06 au^3   0.209139E+05 A^3
Electronic Temperature:              0.0023029081 H          727.2000 K
MD Temperature:                      0.0019011447 H          600.3333 K
MD Kinetic Energy:                   0.2195822076 H            5.9751 eV
Total MD Energy:                  -135.7608848252 H        -3694.2416 eV
Pressure:                            0.254873E-06 au     0.749862E+07 Pa

--------------------------------------------------------------------------------

***  Geometry step: 65


Total Energy:                     -135.9729515953 H        -3700.0123 eV
Extrapolated to 0K:               -135.9731807658 H        -3700.0185 eV
Total Mermin free energy:         -135.9734099363 H        -3700.0247 eV
Force related energy:             -135.9729302324 H        -3700.0117 eV

Volume:                              0.141134E+06 au^3   0.209139E+05 A^3
Electronic Temperature:              0.0023339429 H          737.0000 K
MD Temperature:                      0.0019491715 H          615.4989 K
MD Kinetic Energy:                   0.2251293081 H            6.1261 eV
Total MD Energy:                  -135.7482806282 H        -3693.8987 eV
Pressure:                           -0.317891E-07 au    -0.935269E+06 Pa

--------------------------------------------------------------------------------

***  Geometry step: 66


Total Energy:                     -135.9560417149 H        -3699.5521 eV
Extrapolated to 0K:               -135.9563042654 H        -3699.5593 eV
Total Mermin free energy:         -135.9565668158 H        -3699.5664 eV
Force related energy:             -135.9560871119 H        -3699.5534 eV

Volume:                              0.141134E+06 au^3   0.209139E+05 A^3
Electronic Temperature:              0.0023649777 H          746.8000 K
MD Temperature:                      0.0020410998 H          644.5276 K
MD Kinetic Energy:                   0.2357470298 H            6.4150 eV
Total MD Energy:                  -135.7208197860 H        -3693.1514 eV
Pressure:                            0.199263E-06 au     0.586252E+07 Pa

--------------------------------------------------------------------------------

***  Geometry step: 67


Total Energy:                     -135.9506924787 H        -3699.4066 eV
Extrapolated to 0K:               -135.9510097192 H        -3699.4152 eV
Total Mermin free energy:         -135.9513269596 H        -3699.4238 eV
Force related energy:             -135.9508472557 H        -3699.4108 eV

Volume:                              0.141134E+06 au^3   0.209139E+05 A^3
Electronic Temperature:              0.0023960125 H          756.6000 K
MD Temperature:                      0.0018107479 H          571.7883 K
MD Kinetic Energy:                   0.2091413842 H            5.6910 eV
Total MD Energy:                  -135.7421855754 H        -3693.7328 eV
Pressure:                            0.188845E-06 au     0.555601E+07 Pa

--------------------------------------------------------------------------------

***  Geometry step: 68


Total Energy:                     -135.9405372811 H        -3699.1302 eV
Extrapolated to 0K:               -135.9409157574 H        -3699.1405 eV
Total Mermin free energy:         -135.9412942337 H        -3699.1508 eV
Force related energy:             -135.9408145298 H        -3699.1378 eV

Volume:                              0.141134E+06 au^3   0.209139E+05 A^3
Electronic Temperature:              0.0024270473 H          766.4000 K
MD Temperature:                      0.0018909439 H          597.1121 K
MD Kinetic Energy:                   0.2184040171 H            5.9431 eV
Total MD Energy:                  -135.7228902166 H        -3693.2078 eV
Pressure:                            0.401813E-06 au     0.118217E+08 Pa

--------------------------------------------------------------------------------

***  Geometry step: 69


Total Energy:                     -135.9398402800 H        -3699.1113 eV
Extrapolated to 0K:               -135.9402495266 H        -3699.1224 eV
Total Mermin free energy:         -135.9406587733 H        -3699.1335 eV
Force related energy:             -135.9401790693 H        -3699.1205 eV

Volume:                              0.141134E+06 au^3   0.209139E+05 A^3
Electronic Temperature:              0.0024580821 H          776.2000 K
MD Temperature:                      0.0019835238 H          626.3465 K
MD Kinetic Energy:                   0.2290970044 H            6.2340 eV
Total MD Energy:                  -135.7115617688 H        -3692.8995 eV
Pressure:                            0.433790E-06 au     0.127626E+08 Pa

--------------------------------------------------------------------------------

***  Geometry step: 70


Total Energy:                     -135.9478932505 H        -3699.3304 eV
Extrapolated to 0K:               -135.9483035831 H        -3699.3416 eV
Total Mermin free energy:         -135.9487139156 H        -3699.3527 eV
Force related energy:             -135.9482342117 H        -3699.3397 eV

Volume:                              0.141134E+06 au^3   0.209139E+05 A^3
Electronic Temperature:              0.0024891169 H          786.0000 K
MD Temperature:                      0.0023003322 H          726.3866 K
MD Kinetic Energy:                   0.2656883659 H            7.2297 eV
Total MD Energy:                  -135.6830255497 H        -3692.1230 eV
Pressure:                            0.482194E-06 au     0.141866E+08 Pa

--------------------------------------------------------------------------------

***  Geometry step: 71


Total Energy:                     -135.9563380052 H        -3699.5602 eV
Extrapolated to 0K:               -135.9567108415 H        -3699.5703 eV
Total Mermin free energy:         -135.9570836779 H        -3699.5805 eV
Force related energy:             -135.9566039740 H        -3699.5674 eV

Volume:                              0.141134E+06 au^3   0.209139E+05 A^3
Electronic Temperature:              0.0025201517 H          795.8000 K
MD Temperature:                      0.0025646744 H          809.8592 K
MD Kinetic Energy:                   0.2962198980 H            8.0606 eV
Total MD Energy:                  -135.6608637799 H        -3691.5199 eV
Pressure:                            0.386837E-06 au     0.113811E+08 Pa

--------------------------------------------------------------------------------

***  Geometry step: 72


Total Energy:                     -135.9576079901 H        -3699.5947 eV
Extrapolated to 0K:               -135.9578627517 H        -3699.6017 eV
Total Mermin free energy:         -135.9581175134 H        -3699.6086 eV
Force related energy:             -135.9576378095 H        -3699.5956 eV

Volume:                              0.141134E+06 au^3   0.209139E+05 A^3
Electronic Temperature:              0.0025511864 H          805.6000 K
MD Temperature:                      0.0027032951 H          853.6321 K
MD Kinetic Energy:                   0.3122305816 H            8.4962 eV
Total MD Energy:                  -135.6458869318 H        -3691.1124 eV
Pressure:                            0.149616E-06 au     0.440185E+07 Pa

--------------------------------------------------------------------------------

***  Geometry step: 73


Total Energy:                     -135.9331293737 H        -3698.9286 eV
Extrapolated to 0K:               -135.9333181869 H        -3698.9338 eV
Total Mermin free energy:         -135.9335070000 H        -3698.9389 eV
Force related energy:             -135.9330272961 H        -3698.9259 eV

Volume:                              0.141134E+06 au^3   0.209139E+05 A^3
Electronic Temperature:              0.0025822212 H          815.4000 K
MD Temperature:                      0.0026212420 H          827.7218 K
MD Kinetic Energy:                   0.3027534564 H            8.2383 eV
Total MD Energy:                  -135.6307535436 H        -3690.7006 eV
Pressure:                            0.137763E-06 au     0.405313E+07 Pa

--------------------------------------------------------------------------------

***  Geometry step: 74


Total Energy:                     -135.9103519597 H        -3698.3088 eV
Extrapolated to 0K:               -135.9105324929 H        -3698.3138 eV
Total Mermin free energy:         -135.9107130261 H        -3698.3187 eV
Force related energy:             -135.9102333222 H        -3698.3056 eV

Volume:                              0.141134E+06 au^3   0.209139E+05 A^3
Electronic Temperature:              0.0026132560 H          825.2000 K
MD Temperature:                      0.0026151264 H          825.7906 K
MD Kinetic Energy:                   0.3020470985 H            8.2191 eV
Total MD Energy:                  -135.6086659276 H        -3690.0996 eV
Pressure:                            0.681055E-07 au     0.200373E+07 Pa

--------------------------------------------------------------------------------

***  Geometry step: 75


Total Energy:                     -135.8908872022 H        -3697.7792 eV
Extrapolated to 0K:               -135.8911133717 H        -3697.7853 eV
Total Mermin free energy:         -135.8913395413 H        -3697.7915 eV
Force related energy:             -135.8908598373 H        -3697.7784 eV

Volume:                              0.141134E+06 au^3   0.209139E+05 A^3
Electronic Temperature:              0.0026442908 H          835.0000 K
MD Temperature:                      0.0027279529 H          861.4184 K
MD Kinetic Energy:                   0.3150785627 H            8.5737 eV
Total MD Energy:                  -135.5762609786 H        -3689.2178 eV
Pressure:                           -0.332978E-06 au    -0.979654E+07 Pa

--------------------------------------------------------------------------------

***  Geometry step: 76


Total Energy:                     -135.8899516145 H        -3697.7537 eV
Extrapolated to 0K:               -135.8902617156 H        -3697.7622 eV
Total Mermin free energy:         -135.8905718167 H        -3697.7706 eV
Force related energy:             -135.8900921128 H        -3697.7575 eV

Volume:                              0.141134E+06 au^3   0.209139E+05 A^3
Electronic Temperature:              0.0026753256 H          844.8000 K
MD Temperature:                      0.0025821420 H          815.3750 K
MD Kinetic Energy:                   0.2982374047 H            8.1155 eV
Total MD Energy:                  -135.5923344120 H        -3689.6551 eV
Pressure:                           -0.843504E-06 au    -0.248167E+08 Pa

--------------------------------------------------------------------------------

***  Geometry step: 77


Total Energy:                     -135.8909372526 H        -3697.7805 eV
Extrapolated to 0K:               -135.8913618232 H        -3697.7921 eV
Total Mermin free energy:         -135.8917863938 H        -3697.8036 eV
Force related energy:             -135.8913066899 H        -3697.7906 eV

Volume:                              0.141134E+06 au^3   0.209139E+05 A^3
Electronic Temperature:              0.0027063604 H          854.6000 K
MD Temperature:                      0.0027955945 H          882.7779 K
MD Kinetic Energy:                   0.3228911591 H            8.7863 eV
Total MD Energy:                  -135.5688952347 H        -3689.0173 eV
Pressure:                           -0.992297E-06 au    -0.291944E+08 Pa

--------------------------------------------------------------------------------

***  Geometry step: 78


Total Energy:                     -135.8690628411 H        -3697.1853 eV
Extrapolated to 0K:               -135.8696473077 H        -3697.2012 eV
Total Mermin free energy:         -135.8702317743 H        -3697.2171 eV
Force related energy:             -135.8697520703 H        -3697.2041 eV

Volume:                              0.141134E+06 au^3   0.209139E+05 A^3
Electronic Temperature:              0.0027373952 H          864.4000 K
MD Temperature:                      0.0024020788 H          758.5156 K
MD Kinetic Energy:                   0.2774400981 H            7.5495 eV
Total MD Energy:                  -135.5927916761 H        -3689.6676 eV
Pressure:                           -0.106006E-05 au    -0.311881E+08 Pa

--------------------------------------------------------------------------------

***  Geometry step: 79


Total Energy:                     -135.8535011961 H        -3696.7619 eV
Extrapolated to 0K:               -135.8543108069 H        -3696.7839 eV
Total Mermin free energy:         -135.8551204177 H        -3696.8059 eV
Force related energy:             -135.8546407137 H        -3696.7929 eV

Volume:                              0.141134E+06 au^3   0.209139E+05 A^3
Electronic Temperature:              0.0027684300 H          874.2000 K
MD Temperature:                      0.0024575946 H          776.0461 K
MD Kinetic Energy:                   0.2838521711 H            7.7240 eV
Total MD Energy:                  -135.5712682465 H        -3689.0819 eV
Pressure:                           -0.900783E-06 au    -0.265019E+08 Pa

--------------------------------------------------------------------------------

***  Geometry step: 80


Total Energy:                     -135.8598281729 H        -3696.9340 eV
Extrapolated to 0K:               -135.8607695012 H        -3696.9596 eV
Total Mermin free energy:         -135.8617108295 H        -3696.9853 eV
Force related energy:             -135.8612311256 H        -3696.9722 eV

Volume:                              0.141134E+06 au^3   0.209139E+05 A^3
Electronic Temperature:              0.0027994648 H          884.0000 K
MD Temperature:                      0.0024557525 H          775.4644 K
MD Kinetic Energy:                   0.2836394129 H            7.7182 eV
Total MD Energy:                  -135.5780714166 H        -3689.2670 eV
Pressure:                           -0.101014E-05 au    -0.297194E+08 Pa

--------------------------------------------------------------------------------

***  Geometry step: 81


Total Energy:                     -135.8784887535 H        -3697.4418 eV
Extrapolated to 0K:               -135.8794068156 H        -3697.4668 eV
Total Mermin free energy:         -135.8803248778 H        -3697.4918 eV
Force related energy:             -135.8798451739 H        -3697.4787 eV

Volume:                              0.141134E+06 au^3   0.209139E+05 A^3
Electronic Temperature:              0.0028304996 H          893.8000 K
MD Temperature:                      0.0026527562 H          837.6732 K
MD Kinetic Energy:                   0.3063933397 H            8.3374 eV
Total MD Energy:                  -135.5739315381 H        -3689.1544 eV
Pressure:                           -0.124985E-05 au    -0.367719E+08 Pa

--------------------------------------------------------------------------------

***  Geometry step: 82


Total Energy:                     -135.8595117457 H        -3696.9254 eV
Extrapolated to 0K:               -135.8605383325 H        -3696.9533 eV
Total Mermin free energy:         -135.8615649192 H        -3696.9813 eV
Force related energy:             -135.8610852154 H        -3696.9682 eV

Volume:                              0.141134E+06 au^3   0.209139E+05 A^3
Electronic Temperature:              0.0028615343 H          903.6000 K
MD Temperature:                      0.0028018373 H          884.7492 K
MD Kinetic Energy:                   0.3236122065 H            8.8059 eV
Total MD Energy:                  -135.5379527128 H        -3688.1753 eV
Pressure:                           -0.986244E-06 au    -0.290163E+08 Pa

--------------------------------------------------------------------------------

***  Geometry step: 83


Total Energy:                     -135.8580671654 H        -3696.8861 eV
Extrapolated to 0K:               -135.8591232470 H        -3696.9148 eV
Total Mermin free energy:         -135.8601793286 H        -3696.9436 eV
Force related energy:             -135.8596996248 H        -3696.9305 eV

Volume:                              0.141134E+06 au^3   0.209139E+05 A^3
Electronic Temperature:              0.0028925691 H          913.4000 K
MD Temperature:                      0.0031724302 H         1001.7730 K
MD Kinetic Energy:                   0.3664156874 H            9.9707 eV
Total MD Energy:                  -135.4937636412 H        -3686.9729 eV
Pressure:                           -0.767759E-06 au    -0.225882E+08 Pa

--------------------------------------------------------------------------------

***  Geometry step: 84


Total Energy:                     -135.8578112309 H        -3696.8791 eV
Extrapolated to 0K:               -135.8588540373 H        -3696.9075 eV
Total Mermin free energy:         -135.8598968437 H        -3696.9359 eV
Force related energy:             -135.8594171399 H        -3696.9228 eV

Volume:                              0.141134E+06 au^3   0.209139E+05 A^3
Electronic Temperature:              0.0029236039 H          923.2000 K
MD Temperature:                      0.0033572119 H         1060.1224 K
MD Kinetic Energy:                   0.3877579720 H           10.5514 eV
Total MD Energy:                  -135.4721388718 H        -3686.3845 eV
Pressure:                           -0.531153E-06 au    -0.156271E+08 Pa

--------------------------------------------------------------------------------

***  Geometry step: 85


Total Energy:                     -135.8278707329 H        -3696.0644 eV
Extrapolated to 0K:               -135.8287522426 H        -3696.0884 eV
Total Mermin free energy:         -135.8296337524 H        -3696.1124 eV
Force related energy:             -135.8291540485 H        -3696.0993 eV

Volume:                              0.141134E+06 au^3   0.209139E+05 A^3
Electronic Temperature:              0.0029546387 H          933.0000 K
MD Temperature:                      0.0030809641 H          972.8904 K
MD Kinetic Energy:                   0.3558513565 H            9.6832 eV
Total MD Energy:                  -135.4737823958 H        -3686.4292 eV
Pressure:                            0.165016E-07 au     0.485493E+06 Pa

--------------------------------------------------------------------------------

***  Geometry step: 86


Total Energy:                     -135.8043330198 H        -3695.4239 eV
Extrapolated to 0K:               -135.8052660971 H        -3695.4493 eV
Total Mermin free energy:         -135.8061991743 H        -3695.4747 eV
Force related energy:             -135.8057194705 H        -3695.4616 eV

Volume:                              0.141134E+06 au^3   0.209139E+05 A^3
Electronic Temperature:              0.0029856735 H          942.8000 K
MD Temperature:                      0.0027020427 H          853.2366 K
MD Kinetic Energy:                   0.3120859342 H            8.4923 eV
Total MD Energy:                  -135.4941132401 H        -3686.9824 eV
Pressure:                            0.250371E-06 au     0.736617E+07 Pa

--------------------------------------------------------------------------------

***  Geometry step: 87


Total Energy:                     -135.7883256338 H        -3694.9883 eV
Extrapolated to 0K:               -135.7892798330 H        -3695.0143 eV
Total Mermin free energy:         -135.7902340322 H        -3695.0403 eV
Force related energy:             -135.7897543283 H        -3695.0272 eV

Volume:                              0.141134E+06 au^3   0.209139E+05 A^3
Electronic Temperature:              0.0030167083 H          952.6000 K
MD Temperature:                      0.0023866308 H          753.6375 K
MD Kinetic Energy:                   0.2756558561 H            7.5010 eV
Total MD Energy:                  -135.5145781761 H        -3687.5393 eV
Pressure:                            0.357289E-06 au     0.105118E+08 Pa

--------------------------------------------------------------------------------

***  Geometry step: 88


Total Energy:                     -135.8079057325 H        -3695.5211 eV
Extrapolated to 0K:               -135.8090041117 H        -3695.5510 eV
Total Mermin free energy:         -135.8101024909 H        -3695.5809 eV
Force related energy:             -135.8096227871 H        -3695.5679 eV

Volume:                              0.141134E+06 au^3   0.209139E+05 A^3
Electronic Temperature:              0.0030477431 H          962.4000 K
MD Temperature:                      0.0024907567 H          786.5178 K
MD Kinetic Energy:                   0.2876823953 H            7.8282 eV
Total MD Energy:                  -135.5224200956 H        -3687.7527 eV
Pressure:                           -0.847833E-07 au    -0.249441E+07 Pa

--------------------------------------------------------------------------------

***  Geometry step: 89


Total Energy:                     -135.8604103450 H        -3696.9499 eV
Extrapolated to 0K:               -135.8614868834 H        -3696.9792 eV
Total Mermin free energy:         -135.8625634218 H        -3697.0085 eV
Force related energy:             -135.8620837179 H        -3696.9954 eV

Volume:                              0.141134E+06 au^3   0.209139E+05 A^3
Electronic Temperature:              0.0030787779 H          972.2000 K
MD Temperature:                      0.0027439127 H          866.4581 K
MD Kinetic Energy:                   0.3169219219 H            8.6239 eV
Total MD Energy:                  -135.5456414998 H        -3688.3846 eV
Pressure:                           -0.744585E-06 au    -0.219064E+08 Pa

--------------------------------------------------------------------------------

***  Geometry step: 90


Total Energy:                     -135.8670707034 H        -3697.1311 eV
Extrapolated to 0K:               -135.8683591561 H        -3697.1662 eV
Total Mermin free energy:         -135.8696476088 H        -3697.2012 eV
Force related energy:             -135.8691679049 H        -3697.1882 eV

Volume:                              0.141134E+06 au^3   0.209139E+05 A^3
Electronic Temperature:              0.0031098127 H          982.0000 K
MD Temperature:                      0.0028988540 H          915.3846 K
MD Kinetic Energy:                   0.3348176421 H            9.1109 eV
Total MD Energy:                  -135.5348299667 H        -3688.0904 eV
Pressure:                           -0.768823E-06 au    -0.226196E+08 Pa

--------------------------------------------------------------------------------

***  Geometry step: 91


Total Energy:                     -135.8594347579 H        -3696.9233 eV
Extrapolated to 0K:               -135.8609541785 H        -3696.9647 eV
Total Mermin free energy:         -135.8624735991 H        -3697.0060 eV
Force related energy:             -135.8619938952 H        -3696.9930 eV

Volume:                              0.141134E+06 au^3   0.209139E+05 A^3
Electronic Temperature:              0.0031408475 H          991.8000 K
MD Temperature:                      0.0030945606 H          977.1838 K
MD Kinetic Energy:                   0.3574217524 H            9.7259 eV
Total MD Energy:                  -135.5050518466 H        -3687.2801 eV
Pressure:                           -0.403937E-06 au    -0.118842E+08 Pa

--------------------------------------------------------------------------------

***  Geometry step: 92


Total Energy:                     -135.8202206408 H        -3695.8562 eV
Extrapolated to 0K:               -135.8218251498 H        -3695.8999 eV
Total Mermin free energy:         -135.8234296589 H        -3695.9436 eV
[...]
Force related energy:             -136.0569831543 H        -3702.2989 eV

Volume:                              0.141154E+06 au^3   0.209169E+05 A^3
Electronic Temperature:              0.0006584060 H          207.9079 K
MD Temperature:                      0.0008967507 H          283.1711 K
MD Kinetic Energy:                   0.1035747105 H            2.8184 eV
Total MD Energy:                  -135.9538882175 H        -3699.4935 eV
Pressure:                           -0.358356E-05 au    -0.105432E+09 Pa

--------------------------------------------------------------------------------

***  Geometry step: 2978


Total Energy:                     -136.0642031397 H        -3702.4953 eV
Extrapolated to 0K:               -136.0642031492 H        -3702.4953 eV
Total Mermin free energy:         -136.0642031586 H        -3702.4953 eV
Force related energy:             -136.0637233849 H        -3702.4823 eV

Volume:                              0.141154E+06 au^3   0.209169E+05 A^3
Electronic Temperature:              0.0006428730 H          203.0030 K
MD Temperature:                      0.0008197663 H          258.8614 K
MD Kinetic Energy:                   0.0946830028 H            2.5765 eV
Total MD Energy:                  -135.9695201558 H        -3699.9189 eV
Pressure:                           -0.346164E-05 au    -0.101845E+09 Pa

--------------------------------------------------------------------------------

***  Geometry step: 2979


Total Energy:                     -136.0712008195 H        -3702.6858 eV
Extrapolated to 0K:               -136.0712008305 H        -3702.6858 eV
Total Mermin free energy:         -136.0712008415 H        -3702.6858 eV
Force related energy:             -136.0707210679 H        -3702.6727 eV

Volume:                              0.141154E+06 au^3   0.209169E+05 A^3
Electronic Temperature:              0.0006273401 H          198.0981 K
MD Temperature:                      0.0008190428 H          258.6330 K
MD Kinetic Energy:                   0.0945994457 H            2.5742 eV
Total MD Energy:                  -135.9766013958 H        -3700.1116 eV
Pressure:                           -0.327794E-05 au    -0.964404E+08 Pa

--------------------------------------------------------------------------------

***  Geometry step: 2980


Total Energy:                     -136.0728379059 H        -3702.7303 eV
Extrapolated to 0K:               -136.0728379125 H        -3702.7303 eV
Total Mermin free energy:         -136.0728379190 H        -3702.7303 eV
Force related energy:             -136.0723581454 H        -3702.7173 eV

Volume:                              0.141154E+06 au^3   0.209169E+05 A^3
Electronic Temperature:              0.0006118072 H          193.1932 K
MD Temperature:                      0.0007847948 H          247.8183 K
MD Kinetic Energy:                   0.0906438008 H            2.4665 eV
Total MD Energy:                  -135.9821941182 H        -3700.2638 eV
Pressure:                           -0.295497E-05 au    -0.869382E+08 Pa

--------------------------------------------------------------------------------

***  Geometry step: 2981


Total Energy:                     -136.0724687684 H        -3702.7203 eV
Extrapolated to 0K:               -136.0724687702 H        -3702.7203 eV
Total Mermin free energy:         -136.0724687721 H        -3702.7203 eV
Force related energy:             -136.0719889985 H        -3702.7072 eV

Volume:                              0.141154E+06 au^3   0.209169E+05 A^3
Electronic Temperature:              0.0005962742 H          188.2883 K
MD Temperature:                      0.0007931345 H          250.4518 K
MD Kinetic Energy:                   0.0916070311 H            2.4928 eV
Total MD Energy:                  -135.9808617409 H        -3700.2275 eV
Pressure:                           -0.280766E-05 au    -0.826043E+08 Pa

--------------------------------------------------------------------------------

***  Geometry step: 2982


Total Energy:                     -136.0743883495 H        -3702.7725 eV
Extrapolated to 0K:               -136.0743883501 H        -3702.7725 eV
Total Mermin free energy:         -136.0743883508 H        -3702.7725 eV
Force related energy:             -136.0739085773 H        -3702.7594 eV

Volume:                              0.141154E+06 au^3   0.209169E+05 A^3
Electronic Temperature:              0.0005807413 H          183.3834 K
MD Temperature:                      0.0007215931 H          227.8608 K
MD Kinetic Energy:                   0.0833440082 H            2.2679 eV
Total MD Energy:                  -135.9910443426 H        -3700.5046 eV
Pressure:                           -0.283956E-05 au    -0.835429E+08 Pa

--------------------------------------------------------------------------------

***  Geometry step: 2983


Total Energy:                     -136.0756545459 H        -3702.8070 eV
Extrapolated to 0K:               -136.0756545462 H        -3702.8070 eV
Total Mermin free energy:         -136.0756545465 H        -3702.8070 eV
Force related energy:             -136.0751747730 H        -3702.7939 eV

Volume:                              0.141154E+06 au^3   0.209169E+05 A^3
Electronic Temperature:              0.0005652084 H          178.4785 K
MD Temperature:                      0.0007402526 H          233.7530 K
MD Kinetic Energy:                   0.0854991766 H            2.3266 eV
Total MD Energy:                  -135.9901553700 H        -3700.4804 eV
Pressure:                           -0.285638E-05 au    -0.840376E+08 Pa

--------------------------------------------------------------------------------

***  Geometry step: 2984


Total Energy:                     -136.0794961302 H        -3702.9115 eV
Extrapolated to 0K:               -136.0794961304 H        -3702.9115 eV
Total Mermin free energy:         -136.0794961305 H        -3702.9115 eV
Force related energy:             -136.0790163570 H        -3702.8984 eV

Volume:                              0.141154E+06 au^3   0.209169E+05 A^3
Electronic Temperature:              0.0005496755 H          173.5736 K
MD Temperature:                      0.0007377287 H          232.9560 K
MD Kinetic Energy:                   0.0852076638 H            2.3186 eV
Total MD Energy:                  -135.9942884667 H        -3700.5929 eV
Pressure:                           -0.302036E-05 au    -0.888619E+08 Pa

--------------------------------------------------------------------------------

***  Geometry step: 2985


Total Energy:                     -136.0846920355 H        -3703.0529 eV
Extrapolated to 0K:               -136.0846920355 H        -3703.0529 eV
Total Mermin free energy:         -136.0846920356 H        -3703.0529 eV
Force related energy:             -136.0842122622 H        -3703.0398 eV

Volume:                              0.141154E+06 au^3   0.209169E+05 A^3
Electronic Temperature:              0.0005341425 H          168.6687 K
MD Temperature:                      0.0007606087 H          240.1809 K
MD Kinetic Energy:                   0.0878502995 H            2.3905 eV
Total MD Energy:                  -135.9968417361 H        -3700.6624 eV
Pressure:                           -0.315412E-05 au    -0.927974E+08 Pa

--------------------------------------------------------------------------------

***  Geometry step: 2986


Total Energy:                     -136.0863012219 H        -3703.0967 eV
Extrapolated to 0K:               -136.0863012220 H        -3703.0967 eV
Total Mermin free energy:         -136.0863012220 H        -3703.0967 eV
Force related energy:             -136.0858214486 H        -3703.0836 eV

Volume:                              0.141154E+06 au^3   0.209169E+05 A^3
Electronic Temperature:              0.0005186096 H          163.7638 K
MD Temperature:                      0.0007234675 H          228.4527 K
MD Kinetic Energy:                   0.0835605017 H            2.2738 eV
Total MD Energy:                  -136.0027407204 H        -3700.8229 eV
Pressure:                           -0.323918E-05 au    -0.952999E+08 Pa

--------------------------------------------------------------------------------

***  Geometry step: 2987


Total Energy:                     -136.0854770349 H        -3703.0742 eV
Extrapolated to 0K:               -136.0854770350 H        -3703.0742 eV
Total Mermin free energy:         -136.0854770351 H        -3703.0742 eV
Force related energy:             -136.0849972617 H        -3703.0612 eV

Volume:                              0.141154E+06 au^3   0.209169E+05 A^3
Electronic Temperature:              0.0005030767 H          158.8589 K
MD Temperature:                      0.0006929800 H          218.8255 K
MD Kinetic Energy:                   0.0800391850 H            2.1780 eV
Total MD Energy:                  -136.0054378501 H        -3700.8963 eV
Pressure:                           -0.318394E-05 au    -0.936746E+08 Pa

--------------------------------------------------------------------------------

***  Geometry step: 2988


Total Energy:                     -136.0828507680 H        -3703.0028 eV
Extrapolated to 0K:               -136.0828507681 H        -3703.0028 eV
Total Mermin free energy:         -136.0828507682 H        -3703.0028 eV
Force related energy:             -136.0823709949 H        -3702.9897 eV

Volume:                              0.141154E+06 au^3   0.209169E+05 A^3
Electronic Temperature:              0.0004875437 H          153.9540 K
MD Temperature:                      0.0006242018 H          197.1071 K
MD Kinetic Energy:                   0.0720953064 H            1.9618 eV
Total MD Energy:                  -136.0107554618 H        -3701.0410 eV
Pressure:                           -0.307804E-05 au    -0.905590E+08 Pa

--------------------------------------------------------------------------------

***  Geometry step: 2989


Total Energy:                     -136.0837220173 H        -3703.0265 eV
Extrapolated to 0K:               -136.0837220174 H        -3703.0265 eV
Total Mermin free energy:         -136.0837220175 H        -3703.0265 eV
Force related energy:             -136.0832422442 H        -3703.0134 eV

Volume:                              0.141154E+06 au^3   0.209169E+05 A^3
Electronic Temperature:              0.0004720108 H          149.0490 K
MD Temperature:                      0.0006615995 H          208.9164 K
MD Kinetic Energy:                   0.0764147451 H            2.0794 eV
Total MD Energy:                  -136.0073072724 H        -3700.9471 eV
Pressure:                           -0.297821E-05 au    -0.876220E+08 Pa

--------------------------------------------------------------------------------

***  Geometry step: 2990


Total Energy:                     -136.0937008254 H        -3703.2980 eV
Extrapolated to 0K:               -136.0937008255 H        -3703.2980 eV
Total Mermin free energy:         -136.0937008255 H        -3703.2980 eV
Force related energy:             -136.0932210522 H        -3703.2850 eV

Volume:                              0.141154E+06 au^3   0.209169E+05 A^3
Electronic Temperature:              0.0004564779 H          144.1441 K
MD Temperature:                      0.0007231085 H          228.3393 K
MD Kinetic Energy:                   0.0835190260 H            2.2727 eV
Total MD Energy:                  -136.0101817995 H        -3701.0254 eV
Pressure:                           -0.288587E-05 au    -0.849051E+08 Pa

--------------------------------------------------------------------------------

***  Geometry step: 2991


Total Energy:                     -136.0990983201 H        -3703.4449 eV
Extrapolated to 0K:               -136.0990983202 H        -3703.4449 eV
Total Mermin free energy:         -136.0990983202 H        -3703.4449 eV
Force related energy:             -136.0986185469 H        -3703.4318 eV

Volume:                              0.141154E+06 au^3   0.209169E+05 A^3
Electronic Temperature:              0.0004409450 H          139.2392 K
MD Temperature:                      0.0006198962 H          195.7475 K
MD Kinetic Energy:                   0.0715980136 H            1.9483 eV
Total MD Energy:                  -136.0275003066 H        -3701.4966 eV
Pressure:                           -0.284388E-05 au    -0.836697E+08 Pa

--------------------------------------------------------------------------------

***  Geometry step: 2992


Total Energy:                     -136.0988831070 H        -3703.4390 eV
Extrapolated to 0K:               -136.0988831071 H        -3703.4390 eV
Total Mermin free energy:         -136.0988831071 H        -3703.4390 eV
Force related energy:             -136.0984033339 H        -3703.4260 eV

Volume:                              0.141154E+06 au^3   0.209169E+05 A^3
Electronic Temperature:              0.0004254120 H          134.3343 K
MD Temperature:                      0.0006031212 H          190.4504 K
MD Kinetic Energy:                   0.0696605022 H            1.8956 eV
Total MD Energy:                  -136.0292226049 H        -3701.5435 eV
Pressure:                           -0.264924E-05 au    -0.779433E+08 Pa

--------------------------------------------------------------------------------

***  Geometry step: 2993


Total Energy:                     -136.1005900817 H        -3703.4855 eV
Extrapolated to 0K:               -136.1005900818 H        -3703.4855 eV
Total Mermin free energy:         -136.1005900818 H        -3703.4855 eV
Force related energy:             -136.1001103086 H        -3703.4724 eV

Volume:                              0.141154E+06 au^3   0.209169E+05 A^3
Electronic Temperature:              0.0004098791 H          129.4294 K
MD Temperature:                      0.0005823286 H          183.8846 K
MD Kinetic Energy:                   0.0672589484 H            1.8302 eV
Total MD Energy:                  -136.0333311334 H        -3701.6553 eV
Pressure:                           -0.248993E-05 au    -0.732561E+08 Pa

--------------------------------------------------------------------------------

***  Geometry step: 2994


Total Energy:                     -136.1055026258 H        -3703.6192 eV
Extrapolated to 0K:               -136.1055026258 H        -3703.6192 eV
Total Mermin free energy:         -136.1055026258 H        -3703.6192 eV
Force related energy:             -136.1050228526 H        -3703.6061 eV

Volume:                              0.141154E+06 au^3   0.209169E+05 A^3
Electronic Temperature:              0.0003943462 H          124.5245 K
MD Temperature:                      0.0006308080 H          199.1932 K
MD Kinetic Energy:                   0.0728583257 H            1.9826 eV
Total MD Energy:                  -136.0326443001 H        -3701.6366 eV
Pressure:                           -0.243594E-05 au    -0.716679E+08 Pa

--------------------------------------------------------------------------------

***  Geometry step: 2995


Total Energy:                     -136.1081839089 H        -3703.6921 eV
Extrapolated to 0K:               -136.1081839089 H        -3703.6921 eV
Total Mermin free energy:         -136.1081839089 H        -3703.6921 eV
Force related energy:             -136.1077041357 H        -3703.6791 eV

Volume:                              0.141154E+06 au^3   0.209169E+05 A^3
Electronic Temperature:              0.0003788132 H          119.6196 K
MD Temperature:                      0.0006451698 H          203.7283 K
MD Kinetic Energy:                   0.0745171143 H            2.0277 eV
Total MD Energy:                  -136.0336667946 H        -3701.6644 eV
Pressure:                           -0.247301E-05 au    -0.727583E+08 Pa

--------------------------------------------------------------------------------

***  Geometry step: 2996


Total Energy:                     -136.1063076150 H        -3703.6411 eV
Extrapolated to 0K:               -136.1063076150 H        -3703.6411 eV
Total Mermin free energy:         -136.1063076150 H        -3703.6411 eV
Force related energy:             -136.1058278419 H        -3703.6280 eV

Volume:                              0.141154E+06 au^3   0.209169E+05 A^3
Electronic Temperature:              0.0003632803 H          114.7147 K
MD Temperature:                      0.0005572069 H          175.9518 K
MD Kinetic Energy:                   0.0643573965 H            1.7513 eV
Total MD Energy:                  -136.0419502185 H        -3701.8898 eV
Pressure:                           -0.260847E-05 au    -0.767439E+08 Pa

--------------------------------------------------------------------------------

***  Geometry step: 2997


Total Energy:                     -136.1011607751 H        -3703.5010 eV
Extrapolated to 0K:               -136.1011607751 H        -3703.5010 eV
Total Mermin free energy:         -136.1011607751 H        -3703.5010 eV
Force related energy:             -136.1006810020 H        -3703.4880 eV

Volume:                              0.141154E+06 au^3   0.209169E+05 A^3
Electronic Temperature:              0.0003477474 H          109.8098 K
MD Temperature:                      0.0004337321 H          136.9616 K
MD Kinetic Energy:                   0.0500960586 H            1.3632 eV
Total MD Energy:                  -136.0510647166 H        -3702.1378 eV
Pressure:                           -0.279237E-05 au    -0.821543E+08 Pa

--------------------------------------------------------------------------------

***  Geometry step: 2998


Total Energy:                     -136.1080591796 H        -3703.6887 eV
Extrapolated to 0K:               -136.1080591796 H        -3703.6887 eV
Total Mermin free energy:         -136.1080591796 H        -3703.6887 eV
Force related energy:             -136.1075794066 H        -3703.6757 eV

Volume:                              0.141154E+06 au^3   0.209169E+05 A^3
Electronic Temperature:              0.0003322145 H          104.9049 K
MD Temperature:                      0.0004627552 H          146.1264 K
MD Kinetic Energy:                   0.0534482231 H            1.4544 eV
Total MD Energy:                  -136.0546109565 H        -3702.2343 eV
Pressure:                           -0.297248E-05 au    -0.874533E+08 Pa

--------------------------------------------------------------------------------

***  Geometry step: 2999


Total Energy:                     -136.1135399296 H        -3703.8379 eV
Extrapolated to 0K:               -136.1135399296 H        -3703.8379 eV
Total Mermin free energy:         -136.1135399296 H        -3703.8379 eV
Force related energy:             -136.1130601566 H        -3703.8248 eV

Volume:                              0.141154E+06 au^3   0.209169E+05 A^3
Electronic Temperature:              0.0003166815 H          100.0000 K
MD Temperature:                      0.0004586527 H          144.8309 K
MD Kinetic Energy:                   0.0529743818 H            1.4415 eV
Total MD Energy:                  -136.0605655479 H        -3702.3964 eV
Pressure:                           -0.305949E-05 au    -0.900134E+08 Pa

Molecular dynamics completed
MD information accumulated in md.out

--------------------------------------------------------------------------------
DFTB+ running times                          cpu [s]             wall clock [s]
--------------------------------------------------------------------------------
Global initialisation                  +       0.00 (  0.0%)       0.04 (  0.0%)
Pre-SCC initialisation                 +       4.53 (  4.3%)       4.54 (  4.1%)
SCC                                    +      46.69 ( 44.4%)      46.70 ( 42.6%)
Post-SCC processing                    +      53.86 ( 51.2%)      58.34 ( 53.2%)
--------------------------------------------------------------------------------
Missing                                +       0.09 (  0.1%)       0.10 (  0.1%)
Total                                  =     105.17 (100.0%)     109.71 (100.0%)
--------------------------------------------------------------------------------
