 *******************************************************************************
 **                                                                           **
 **                              MOPAC v22.1.0                                **
 **                                                                           **
 *******************************************************************************
 **          Digital Object Identifier (DOI): 10.5281/zenodo.6511958          **
 **    Visit the DOI location for information on how to cite this program.    **
 *******************************************************************************

                              PM7 CALCULATION RESULTS

 *******************************************************************************
 *  CALCULATION DONE:                                Wed Jan 31 13:56:57 2024  *
 *  PM7        - The PM7 Hamiltonian to be used
 *  NOOPT      - DO NOT OPTIMIZE ANY COORDINATES
 *
 *
 *
 *                 CHARGE ON SYSTEM = 0
 *
 *
 *
 *  T=         - A TIME OF 172800.0 SECONDS REQUESTED
 *  DUMP=N     - RESTART FILE WRITTEN EVERY 7200.0 SECONDS REQUESTED
 *******************************************************************************
PM7 CHARGE=0 NOOPT


   ATOM   CHEMICAL          X               Y               Z
  NUMBER   SYMBOL      (ANGSTROMS)     (ANGSTROMS)     (ANGSTROMS)

     1       N         18.45687600     16.94528000     20.56300100   
     2       N         10.92778000      0.40437600      9.52449900   
     3       N          3.50699900      6.42187600     19.15972000   
     4       N         19.15972000      3.50699900      6.42187600   
     5       N         20.56300100     18.45687600     16.94528000   
     6       N         16.94528000     20.56300100     18.45687600   
     7       N          6.42187600     19.15972000      3.50699900   
     8       N         22.96278000     11.63062400     14.54550100   
     9       N         23.66562400     21.55949900      1.10722000   
    10       N          1.10722000     23.66562400     21.55949900   
    11       N         21.55949900      1.10722000     23.66562400   
    12       N         11.63062400     14.54550100     22.96278000   
    13       N         14.54550100     22.96278000     11.63062400   
    14       N          7.12472000      8.52800100     17.64812400   
    15       N          5.61312400      4.91028000     15.54199900   
    16       N         17.64812400      7.12472000      8.52800100   
    17       N         15.54199900      5.61312400      4.91028000   
    18       N          8.52800100     17.64812400      7.12472000   
    19       N          4.91028000     15.54199900      5.61312400   
    20       N          0.40437600      9.52449900     10.92778000   
    21       N          2.51050100     13.14222000     12.43937600   
    22       N         13.14222000     12.43937600      2.51050100   
    23       N          9.52449900     10.92778000      0.40437600   
    24       N         12.43937600      2.51050100     13.14222000   
    25       C         17.76606700     14.46125600     21.22974000   
    26       C          8.44375600     23.78356700      8.85776000   
    27       C          2.84026000      5.73106700     21.64374400   
    28       C         21.64374400      2.84026000      5.73106700   
    29       C         21.22974000     17.76606700     14.46125600   
    30       C         14.46125600     21.22974000     17.76606700   
    31       C          5.73106700     21.64374400      2.84026000   
    32       C         20.47875600     12.32143300     15.21224000   
    33       C          0.28643300     20.89276000      3.59124400   
    34       C          3.59124400      0.28643300     20.89276000   
    35       C         20.89276000      3.59124400      0.28643300   
    36       C         12.32143300     15.21224000     20.47875600   
    37       C         15.21224000     20.47875600     12.32143300   
    38       C          9.60874400      9.19474000     18.33893300   
    39       C          6.30393300      2.42625600     14.87526000   
    40       C         18.33893300      9.60874400      9.19474000   
    41       C         14.87526000      6.30393300      2.42625600   
    42       C          9.19474000     18.33893300      9.60874400   
    43       C          2.42625600     14.87526000      6.30393300   
    44       C         23.78356700      8.85776000      8.44375600   
    45       C          3.17724000     15.62624400     11.74856700   
    46       C         15.62624400     11.74856700      3.17724000   
    47       C          8.85776000      8.44375600     23.78356700   
    48       C         11.74856700      3.17724000     15.62624400   
    49       C         18.94068300     14.63696700     20.42098800   
    50       C          8.61946700      0.88818300      9.66651200   
    51       C          3.64901200      6.90568300     21.46803300   
    52       C         21.46803300      3.64901200      6.90568300   
    53       C         20.42098800     18.94068300     14.63696700   
    54       C         14.63696700     20.42098800     18.94068300   
    55       C          6.90568300     21.46803300      3.64901200   
    56       C         20.65446700     11.14681700     14.40348800   
    57       C         23.18181700     21.70151200      3.41553300   
    58       C          3.41553300     23.18181700     21.70151200   
    59       C         21.70151200      3.41553300     23.18181700   
    60       C         11.14681700     14.40348800     20.65446700   
    61       C         14.40348800     20.65446700     11.14681700   
    62       C          9.43303300      8.38598800     17.16431700   
    63       C          5.12931700      2.60196700     15.68401200   
    64       C         17.16431700      9.43303300      8.38598800   
    65       C         15.68401200      5.12931700      2.60196700   
    66       C          8.38598800     17.16431700      9.43303300   
    67       C          2.60196700     15.68401200      5.12931700   
    68       C          0.88818300      9.66651200      8.61946700   
    69       C          2.36848800     15.45053300     12.92318300   
    70       C         15.45053300     12.92318300      2.36848800   
    71       C          9.66651200      8.61946700      0.88818300   
    72       C         12.92318300      2.36848800     15.45053300   
    73       C         14.79342200     17.30392300     20.81332900   
    74       C         11.28642300     20.81092200      9.27417100   
    75       C          3.25667100      2.75842200     18.80107700   
    76       C         18.80107700      3.25667100      2.75842200   
    77       C         20.81332900     14.79342200     17.30392300   
    78       C         17.30392300     20.81332900     14.79342200   
    79       C          2.75842200     18.80107700      3.25667100   
    80       C         23.32142300     15.29407800     14.79582900   
    81       C          3.25907800     21.30917100      0.74857700   
    82       C          0.74857700      3.25907800     21.30917100   
    83       C         21.30917100      0.74857700      3.25907800   
    84       C         15.29407800     14.79582900     23.32142300   
    85       C         14.79582900     23.32142300     15.29407800   
    86       C          6.76607700      8.77832900     21.31157800   
    87       C          9.27657800      5.26892300     15.29167100   
    88       C         21.31157800      6.76607700      8.77832900   
    89       C         15.29167100      9.27657800      5.26892300   
    90       C          8.77832900     21.31157800      6.76607700   
    91       C          5.26892300     15.29167100      9.27657800   
    92       C         20.81092200      9.27417100     11.28642300   
    93       C          2.76082900     12.78357700      8.77592200   
    94       C         12.78357700      8.77592200      2.76082900   
    95       C          9.27417100     11.28642300     20.81092200   
    96       C          8.77592200      2.76082900     12.78357700   
    97       C         15.55884800     15.38313700     22.14199300   
    98       C          9.36563700     21.57634800      7.94550700   
    99       C          1.92800700      3.52384800     20.72186300   
   100       C         20.72186300      1.92800700      3.52384800   
   101       C         22.14199300     15.55884800     15.38313700   
   102       C         15.38313700     22.14199300     15.55884800   
   103       C          3.52384800     20.72186300      1.92800700   
   104       C         21.40063700     14.52865200     16.12449300   
   105       C          2.49365200     19.98050700      2.66936300   
   106       C          2.66936300      2.49365200     19.98050700   
   107       C         19.98050700      2.66936300      2.49365200   
   108       C         14.52865200     16.12449300     21.40063700   
   109       C         16.12449300     21.40063700     14.52865200   
   110       C          8.68686300     10.10699300     20.54615200   
   111       C          8.51115200      3.34813700     13.96300700   
   112       C         20.54615200      8.68686300     10.10699300   
   113       C         13.96300700      8.51115200      3.34813700   
   114       C         10.10699300     20.54615200      8.68686300   
   115       C          3.34813700     13.96300700      8.51115200   
   116       C         21.57634800      7.94550700      9.36563700   
   117       C          4.08949300     14.70436300      9.54134800   
   118       C         14.70436300      9.54134800      4.08949300   
   119       C          7.94550700      9.36563700     21.57634800   
   120       C          9.54134800      4.08949300     14.70436300   
   121       C         19.21748800     19.98050700     17.98510400   
   122       C         13.96300700      1.16498800     12.10239600   
   123       C          6.08489600      7.18248800     16.12449300   
   124       C         16.12449300      6.08489600      7.18248800   
   125       C         17.98510400     19.21748800     19.98050700   
   126       C         19.98050700     17.98510400     19.21748800   
   127       C          7.18248800     16.12449300      6.08489600   
   128       C          1.92800700     10.87001200     11.96760400   
   129       C         22.90501200      0.06739600     22.14199300   
   130       C         22.14199300     22.90501200      0.06739600   
   131       C          0.06739600     22.14199300     22.90501200   
   132       C         10.87001200     11.96760400      1.92800700   
   133       C         11.96760400      1.92800700     10.87001200   
   134       C          4.08949300      5.95010400     16.88751200   
   135       C          4.85251200      7.94550700     18.11989600   
   136       C         16.88751200      4.08949300      5.95010400   
   137       C         18.11989600      4.85251200      7.94550700   
   138       C          5.95010400     16.88751200      4.08949300   
   139       C          7.94550700     18.11989600      4.85251200   
   140       C          1.16498800     12.10239600     13.96300700   
   141       C         24.00260400     10.10699300     13.19998800   
   142       C         10.10699300     13.19998800     24.00260400   
   143       C         12.10239600     13.96300700      1.16498800   
   144       C         13.19998800     24.00260400     10.10699300   
   145       C         16.54812500     19.02011400     20.18991600   
   146       C         13.00261400     22.56562500      9.89758400   
   147       C          3.88008400      4.51312500     17.08488600   
   148       C         17.08488600      3.88008400      4.51312500   
   149       C         20.18991600     16.54812500     19.02011400   
   150       C         19.02011400     20.18991600     16.54812500   
   151       C          4.51312500     17.08488600      3.88008400   
   152       C          0.96761400     13.53937500     14.17241600   
   153       C          1.50437500     21.93258400     23.10238600   
   154       C         23.10238600      1.50437500     21.93258400   
   155       C         21.93258400     23.10238600      1.50437500   
   156       C         13.53937500     14.17241600      0.96761400   
   157       C         14.17241600      0.96761400     13.53937500   
   158       C          5.04988600      8.15491600     19.55687500   
   159       C          7.52187500      6.98511400     15.91508400   
   160       C         19.55687500      5.04988600      8.15491600   
   161       C         15.91508400      7.52187500      6.98511400   
   162       C          8.15491600     19.55687500      5.04988600   
   163       C          6.98511400     15.91508400      7.52187500   
   164       C         22.56562500      9.89758400     13.00261400   
   165       C          2.13741600     11.06738600     10.53062500   
   166       C         11.06738600     10.53062500      2.13741600   
   167       C          9.89758400     13.00261400     22.56562500   
   168       C         10.53062500      2.13741600     11.06738600   
   169       C         23.22514300     21.99035200     23.90873100   
   170       C         15.97285200      5.17264300      6.17876900   
   171       C          0.16126900     11.19014300     14.11464800   
   172       C         14.11464800      0.16126900     11.19014300   
   173       C         23.90873100     23.22514300     21.99035200   
   174       C         21.99035200     23.90873100     23.22514300   
   175       C         11.19014300     14.11464800      0.16126900   
   176       C          3.93785200      6.86235700     17.89123100   
   177       C         18.89735700     18.21376900     20.13214800   
   178       C         20.13214800     18.89735700     18.21376900   
   179       C         18.21376900     20.13214800     18.89735700   
   180       C          6.86235700     17.89123100      3.93785200   
   181       C         17.89123100      3.93785200      6.86235700   
   182       C          2.07964800     11.87373100     12.87985700   
   183       C          0.84485700      9.95535200     12.19626900   
   184       C         12.87985700      2.07964800     11.87373100   
   185       C         12.19626900      0.84485700      9.95535200   
   186       C         11.87373100     12.87985700      2.07964800   
   187       C          9.95535200     12.19626900      0.84485700   
   188       C          5.17264300      6.17876900     15.97285200   
   189       C          5.85623100      8.09714800     17.20764300   
   190       C          8.09714800     17.20764300      5.85623100   
   191       C          6.17876900     15.97285200      5.17264300   
   192       C         17.20764300      5.85623100      8.09714800   
   193       C         17.16672400     16.79123200     21.00829600   
   194       C         10.77373200     23.18422400      9.07920400   
   195       C          3.06170400      5.13172400     19.31376800   
   196       C         19.31376800      3.06170400      5.13172400   
   197       C         21.00829600     17.16672400     16.79123200   
   198       C         16.79123200     21.00829600     17.16672400   
   199       C          5.13172400     19.31376800      3.06170400   
   200       C         22.80873200     12.92077600     14.99079600   
   201       C          0.88577600     21.11420400      1.26126800   
   202       C          1.26126800      0.88577600     21.11420400   
   203       C         21.11420400      1.26126800      0.88577600   
   204       C         12.92077600     14.99079600     22.80873200   
   205       C         14.99079600     22.80873200     12.92077600   
   206       C          7.27876800      8.97329600     18.93827600   
   207       C          6.90327600      4.75623200     15.09670400   
   208       C         18.93827600      7.27876800      8.97329600   
   209       C         15.09670400      6.90327600      4.75623200   
   210       C          8.97329600     18.93827600      7.27876800   
   211       C          4.75623200     15.09670400      6.90327600   
   212       C         23.18422400      9.07920400     10.77373200   
   213       C          2.95579600     13.29626800     11.14922400   
   214       C         13.29626800     11.14922400      2.95579600   
   215       C          9.07920400     10.77373200     23.18422400   
   216       C         11.14922400      2.95579600     13.29626800   
   217       C         16.16300500     17.81420700     20.72908400   
   218       C         11.79670700     22.18050500      9.35841600   
   219       C          3.34091600      4.12800500     18.29079300   
   220       C         18.29079300      3.34091600      4.12800500   
   221       C         20.72908400     16.16300500     17.81420700   
   222       C         17.81420700     20.72908400     16.16300500   
   223       C          4.12800500     18.29079300      3.34091600   
   224       C         23.83170700     13.92449500     14.71158400   
   225       C          1.88949500     21.39341600      0.23829300   
   226       C          0.23829300      1.88949500     21.39341600   
   227       C         21.39341600      0.23829300      1.88949500   
   228       C         13.92449500     14.71158400     23.83170700   
   229       C         14.71158400     23.83170700     13.92449500   
   230       C          6.25579300      8.69408400     19.94199500   
   231       C          7.90699500      5.77920700     15.37591600   
   232       C         19.94199500      6.25579300      8.69408400   
   233       C         15.37591600      7.90699500      5.77920700   
   234       C          8.69408400     19.94199500      6.25579300   
   235       C          5.77920700     15.37591600      7.90699500   
   236       C         22.18050500      9.35841600     11.79670700   
   237       C          2.67658400     12.27329300     10.14550500   
   238       C         12.27329300     10.14550500      2.67658400   
   239       C          9.35841600     11.79670700     22.18050500   
   240       C         10.14550500      2.67658400     12.27329300   
   241       C         19.29932600     15.89101400     20.03346100   
   242       C          9.87351400      1.24682600     10.05403900   
   243       C          4.03653900      7.26432600     20.21398600   
   244       C         20.21398600      4.03653900      7.26432600   
   245       C         20.03346100     19.29932600     15.89101400   
   246       C         15.89101400     20.03346100     19.29932600   
   247       C          7.26432600     20.21398600      4.03653900   
   248       C         21.90851400     10.78817400     14.01596100   
   249       C         22.82317400     22.08903900      2.16148600   
   250       C          2.16148600     22.82317400     22.08903900   
   251       C         22.08903900      2.16148600     22.82317400   
   252       C         10.78817400     14.01596100     21.90851400   
   253       C         14.01596100     21.90851400     10.78817400   
   254       C          8.17898600      7.99846100     16.80567400   
   255       C          4.77067400      3.85601400     16.07153900   
   256       C         16.80567400      8.17898600      7.99846100   
   257       C         16.07153900      4.77067400      3.85601400   
   258       C          7.99846100     16.80567400      8.17898600   
   259       C          3.85601400     16.07153900      4.77067400   
   260       C          1.24682600     10.05403900      9.87351400   
   261       C          1.98096100     14.19648600     13.28182600   
   262       C         14.19648600     13.28182600      1.98096100   
   263       C         10.05403900      9.87351400      1.24682600   
   264       C         13.28182600      1.98096100     14.19648600   
   265       C         16.88029100     15.47701000     21.48728900   
   266       C          9.45951000     22.89779100      8.60021100   
   267       C          2.58271100      4.84529100     20.62799000   
   268       C         20.62799000      2.58271100      4.84529100   
   269       C         21.48728900     16.88029100     15.47701000   
   270       C         15.47701000     21.48728900     16.88029100   
   271       C          4.84529100     20.62799000      2.58271100   
   272       C         21.49451000     13.20720900     15.46978900   
   273       C          1.17220900     20.63521100      2.57549000   
   274       C          2.57549000      1.17220900     20.63521100   
   275       C         20.63521100      2.57549000      1.17220900   
   276       C         13.20720900     15.46978900     21.49451000   
   277       C         15.46978900     21.49451000     13.20720900   
   278       C          8.59299000      9.45228900     19.22470900   
   279       C          7.18970900      3.44201000     14.61771100   
   280       C         19.22470900      8.59299000      9.45228900   
   281       C         14.61771100      7.18970900      3.44201000   
   282       C          9.45228900     19.22470900      8.59299000   
   283       C          3.44201000     14.61771100      7.18970900   
   284       C         22.89779100      8.60021100      9.45951000   
   285       C          3.43478900     14.61049000     10.86279100   
   286       C         14.61049000     10.86279100      3.43478900   
   287       C          8.60021100      9.45951000     22.89779100   
   288       C         10.86279100      3.43478900     14.61049000   
   289       H         13.45031600     21.59801100     17.55184400   
   290       H         15.58051100     19.46781600     12.53565600   
   291       H          6.51815600      1.41531600     14.50698900   
   292       H         14.50698900      6.51815600      1.41531600   
   293       H         17.55184400     13.45031600     21.59801100   
   294       H         21.59801100     17.55184400     13.45031600   
   295       H          1.41531600     14.50698900      6.51815600   
   296       H          3.54551100     16.63718400     11.53434400   
   297       H          4.60218400      0.50065600     20.52448900   
   298       H         20.52448900      4.60218400      0.50065600   
   299       H          0.50065600     20.52448900      4.60218400   
   300       H         16.63718400     11.53434400      3.54551100   
   301       H         11.53434400      3.54551100     16.63718400   
   302       H          2.47198900      5.51684400     22.65468400   
   303       H         10.61968400      9.56301100     18.55315600   
   304       H         22.65468400      2.47198900      5.51684400   
   305       H         18.55315600     10.61968400      9.56301100   
   306       H          5.51684400     22.65468400      2.47198900   
   307       H          9.56301100     18.55315600     10.61968400   
   308       H         19.46781600     12.53565600     15.58051100   
   309       H         23.56934400      8.48948900      7.43281600   
   310       H          8.48948900      7.43281600     23.56934400   
   311       H         12.53565600     15.58051100     19.46781600   
   312       H          7.43281600     23.56934400      8.48948900   
   313       H         13.74878400     20.12733400     19.49910700   
   314       H         14.10983400     19.76628400     10.58839300   
   315       H          4.57089300      1.71378400     15.97766600   
   316       H         15.97766600      4.57089300      1.71378400   
   317       H         19.49910700     13.74878400     20.12733400   
   318       H         20.12733400     19.49910700     13.74878400   
   319       H          1.71378400     15.97766600      4.57089300   
   320       H          2.07483400     16.33871600     13.48160700   
   321       H          4.30371600     22.62339300     21.99516600   
   322       H         21.99516600      4.30371600     22.62339300   
   323       H         22.62339300     21.99516600      4.30371600   
   324       H         16.33871600     13.48160700      2.07483400   
   325       H         13.48160700      2.07483400     16.33871600   
   326       H          3.94266600      7.46410700     22.35621600   
   327       H         10.32121600      8.09233400     16.60589300   
   328       H         22.35621600      3.94266600      7.46410700   
   329       H         16.60589300     10.32121600      8.09233400   
   330       H          7.46410700     22.35621600      3.94266600   
   331       H          8.09233400     16.60589300     10.32121600   
   332       H         19.76628400     10.58839300     14.10983400   
   333       H          1.44660700      9.96016600      7.73128400   
   334       H          9.96016600      7.73128400      1.44660700   
   335       H         10.58839300     14.10983400     19.76628400   
   336       H          7.73128400      1.44660700      9.96016600   
   337       H         14.00392600     17.89845200     20.33674300   
   338       H         11.88095200     20.02142600      9.75075700   
   339       H          3.73325700      1.96892600     18.20654800   
   340       H         18.20654800      3.73325700      1.96892600   
   341       H         20.33674300     14.00392600     17.89845200   
   342       H         17.89845200     20.33674300     14.00392600   
   343       H          1.96892600     18.20654800      3.73325700   
   344       H         23.91595200     16.08357400     14.31924300   
   345       H          4.04857400     21.78575700      0.15404800   
   346       H          0.15404800      4.04857400     21.78575700   
   347       H         21.78575700      0.15404800      4.04857400   
   348       H         16.08357400     14.31924300     23.91595200   
   349       H         14.31924300     23.91595200     16.08357400   
   350       H          6.17154800      8.30174300     22.10107400   
   351       H         10.06607400      5.86345200     15.76825700   
   352       H         22.10107400      6.17154800      8.30174300   
   353       H         15.76825700     10.06607400      5.86345200   
   354       H          8.30174300     22.10107400      6.17154800   
   355       H          5.86345200     15.76825700     10.06607400   
   356       H         20.02142600      9.75075700     11.88095200   
   357       H          2.28424300     12.18904800      7.98642600   
   358       H         12.18904800      7.98642600      2.28424300   
   359       H          9.75075700     11.88095200     20.02142600   
   360       H          7.98642600      2.28424300     12.18904800   
   361      Tv         24.07000000      0.00000000      0.00000000   
   362      Tv          0.00000000     24.07000000      0.00000000   
   363      Tv          0.00000000      0.00000000     24.07000000   


                   THE SYSTEM IS A SOLID


                UNIT CELL TRANSLATION VECTORS

              X                Y              Z
    T1 =    24.0700000      0.0000000      0.0000000
    T2 =     0.0000000     24.0700000      0.0000000
    T3 =     0.0000000      0.0000000     24.0700000


          CARTESIAN COORDINATES 

    NO.       ATOM           X           Y           Z

     1         N         18.4569     16.9453     20.5630
     2         N         10.9278      0.4044      9.5245
     3         N          3.5070      6.4219     19.1597
     4         N         19.1597      3.5070      6.4219
     5         N         20.5630     18.4569     16.9453
     6         N         16.9453     20.5630     18.4569
     7         N          6.4219     19.1597      3.5070
     8         N         22.9628     11.6306     14.5455
     9         N         23.6656     21.5595      1.1072
    10         N          1.1072     23.6656     21.5595
    11         N         21.5595      1.1072     23.6656
    12         N         11.6306     14.5455     22.9628
    13         N         14.5455     22.9628     11.6306
    14         N          7.1247      8.5280     17.6481
    15         N          5.6131      4.9103     15.5420
    16         N         17.6481      7.1247      8.5280
    17         N         15.5420      5.6131      4.9103
    18         N          8.5280     17.6481      7.1247
    19         N          4.9103     15.5420      5.6131
    20         N          0.4044      9.5245     10.9278
    21         N          2.5105     13.1422     12.4394
    22         N         13.1422     12.4394      2.5105
    23         N          9.5245     10.9278      0.4044
    24         N         12.4394      2.5105     13.1422
    25         C         17.7661     14.4613     21.2297
    26         C          8.4438     23.7836      8.8578
    27         C          2.8403      5.7311     21.6437
    28         C         21.6437      2.8403      5.7311
    29         C         21.2297     17.7661     14.4613
    30         C         14.4613     21.2297     17.7661
    31         C          5.7311     21.6437      2.8403
    32         C         20.4788     12.3214     15.2122
    33         C          0.2864     20.8928      3.5912
    34         C          3.5912      0.2864     20.8928
    35         C         20.8928      3.5912      0.2864
    36         C         12.3214     15.2122     20.4788
    37         C         15.2122     20.4788     12.3214
    38         C          9.6087      9.1947     18.3389
    39         C          6.3039      2.4263     14.8753
    40         C         18.3389      9.6087      9.1947
    41         C         14.8753      6.3039      2.4263
    42         C          9.1947     18.3389      9.6087
    43         C          2.4263     14.8753      6.3039
    44         C         23.7836      8.8578      8.4438
    45         C          3.1772     15.6262     11.7486
    46         C         15.6262     11.7486      3.1772
    47         C          8.8578      8.4438     23.7836
    48         C         11.7486      3.1772     15.6262
    49         C         18.9407     14.6370     20.4210
    50         C          8.6195      0.8882      9.6665
    51         C          3.6490      6.9057     21.4680
    52         C         21.4680      3.6490      6.9057
    53         C         20.4210     18.9407     14.6370
    54         C         14.6370     20.4210     18.9407
    55         C          6.9057     21.4680      3.6490
    56         C         20.6545     11.1468     14.4035
    57         C         23.1818     21.7015      3.4155
    58         C          3.4155     23.1818     21.7015
    59         C         21.7015      3.4155     23.1818
    60         C         11.1468     14.4035     20.6545
    61         C         14.4035     20.6545     11.1468
    62         C          9.4330      8.3860     17.1643
    63         C          5.1293      2.6020     15.6840
    64         C         17.1643      9.4330      8.3860
    65         C         15.6840      5.1293      2.6020
    66         C          8.3860     17.1643      9.4330
    67         C          2.6020     15.6840      5.1293
    68         C          0.8882      9.6665      8.6195
    69         C          2.3685     15.4505     12.9232
    70         C         15.4505     12.9232      2.3685
    71         C          9.6665      8.6195      0.8882
    72         C         12.9232      2.3685     15.4505
    73         C         14.7934     17.3039     20.8133
    74         C         11.2864     20.8109      9.2742
    75         C          3.2567      2.7584     18.8011
    76         C         18.8011      3.2567      2.7584
    77         C         20.8133     14.7934     17.3039
    78         C         17.3039     20.8133     14.7934
    79         C          2.7584     18.8011      3.2567
    80         C         23.3214     15.2941     14.7958
    81         C          3.2591     21.3092      0.7486
    82         C          0.7486      3.2591     21.3092
    83         C         21.3092      0.7486      3.2591
    84         C         15.2941     14.7958     23.3214
    85         C         14.7958     23.3214     15.2941
    86         C          6.7661      8.7783     21.3116
    87         C          9.2766      5.2689     15.2917
    88         C         21.3116      6.7661      8.7783
    89         C         15.2917      9.2766      5.2689
    90         C          8.7783     21.3116      6.7661
    91         C          5.2689     15.2917      9.2766
    92         C         20.8109      9.2742     11.2864
    93         C          2.7608     12.7836      8.7759
    94         C         12.7836      8.7759      2.7608
    95         C          9.2742     11.2864     20.8109
    96         C          8.7759      2.7608     12.7836
    97         C         15.5588     15.3831     22.1420
    98         C          9.3656     21.5763      7.9455
    99         C          1.9280      3.5238     20.7219
   100         C         20.7219      1.9280      3.5238
   101         C         22.1420     15.5588     15.3831
   102         C         15.3831     22.1420     15.5588
   103         C          3.5238     20.7219      1.9280
   104         C         21.4006     14.5287     16.1245
   105         C          2.4937     19.9805      2.6694
   106         C          2.6694      2.4937     19.9805
   107         C         19.9805      2.6694      2.4937
   108         C         14.5287     16.1245     21.4006
   109         C         16.1245     21.4006     14.5287
   110         C          8.6869     10.1070     20.5462
   111         C          8.5112      3.3481     13.9630
   112         C         20.5462      8.6869     10.1070
   113         C         13.9630      8.5112      3.3481
   114         C         10.1070     20.5462      8.6869
   115         C          3.3481     13.9630      8.5112
   116         C         21.5763      7.9455      9.3656
   117         C          4.0895     14.7044      9.5413
   118         C         14.7044      9.5413      4.0895
   119         C          7.9455      9.3656     21.5763
   120         C          9.5413      4.0895     14.7044
   121         C         19.2175     19.9805     17.9851
   122         C         13.9630      1.1650     12.1024
   123         C          6.0849      7.1825     16.1245
   124         C         16.1245      6.0849      7.1825
   125         C         17.9851     19.2175     19.9805
   126         C         19.9805     17.9851     19.2175
   127         C          7.1825     16.1245      6.0849
   128         C          1.9280     10.8700     11.9676
   129         C         22.9050      0.0674     22.1420
   130         C         22.1420     22.9050      0.0674
   131         C          0.0674     22.1420     22.9050
   132         C         10.8700     11.9676      1.9280
   133         C         11.9676      1.9280     10.8700
   134         C          4.0895      5.9501     16.8875
   135         C          4.8525      7.9455     18.1199
   136         C         16.8875      4.0895      5.9501
   137         C         18.1199      4.8525      7.9455
   138         C          5.9501     16.8875      4.0895
   139         C          7.9455     18.1199      4.8525
   140         C          1.1650     12.1024     13.9630
   141         C         24.0026     10.1070     13.2000
   142         C         10.1070     13.2000     24.0026
   143         C         12.1024     13.9630      1.1650
   144         C         13.2000     24.0026     10.1070
   145         C         16.5481     19.0201     20.1899
   146         C         13.0026     22.5656      9.8976
   147         C          3.8801      4.5131     17.0849
   148         C         17.0849      3.8801      4.5131
   149         C         20.1899     16.5481     19.0201
   150         C         19.0201     20.1899     16.5481
   151         C          4.5131     17.0849      3.8801
   152         C          0.9676     13.5394     14.1724
   153         C          1.5044     21.9326     23.1024
   154         C         23.1024      1.5044     21.9326
   155         C         21.9326     23.1024      1.5044
   156         C         13.5394     14.1724      0.9676
   157         C         14.1724      0.9676     13.5394
   158         C          5.0499      8.1549     19.5569
   159         C          7.5219      6.9851     15.9151
   160         C         19.5569      5.0499      8.1549
   161         C         15.9151      7.5219      6.9851
   162         C          8.1549     19.5569      5.0499
   163         C          6.9851     15.9151      7.5219
   164         C         22.5656      9.8976     13.0026
   165         C          2.1374     11.0674     10.5306
   166         C         11.0674     10.5306      2.1374
   167         C          9.8976     13.0026     22.5656
   168         C         10.5306      2.1374     11.0674
   169         C         23.2251     21.9904     23.9087
   170         C         15.9729      5.1726      6.1788
   171         C          0.1613     11.1901     14.1146
   172         C         14.1146      0.1613     11.1901
   173         C         23.9087     23.2251     21.9904
   174         C         21.9904     23.9087     23.2251
   175         C         11.1901     14.1146      0.1613
   176         C          3.9379      6.8624     17.8912
   177         C         18.8974     18.2138     20.1321
   178         C         20.1321     18.8974     18.2138
   179         C         18.2138     20.1321     18.8974
   180         C          6.8624     17.8912      3.9379
   181         C         17.8912      3.9379      6.8624
   182         C          2.0796     11.8737     12.8799
   183         C          0.8449      9.9554     12.1963
   184         C         12.8799      2.0796     11.8737
   185         C         12.1963      0.8449      9.9554
   186         C         11.8737     12.8799      2.0796
   187         C          9.9554     12.1963      0.8449
   188         C          5.1726      6.1788     15.9729
   189         C          5.8562      8.0971     17.2076
   190         C          8.0971     17.2076      5.8562
   191         C          6.1788     15.9729      5.1726
   192         C         17.2076      5.8562      8.0971
   193         C         17.1667     16.7912     21.0083
   194         C         10.7737     23.1842      9.0792
   195         C          3.0617      5.1317     19.3138
   196         C         19.3138      3.0617      5.1317
   197         C         21.0083     17.1667     16.7912
   198         C         16.7912     21.0083     17.1667
   199         C          5.1317     19.3138      3.0617
   200         C         22.8087     12.9208     14.9908
   201         C          0.8858     21.1142      1.2613
   202         C          1.2613      0.8858     21.1142
   203         C         21.1142      1.2613      0.8858
   204         C         12.9208     14.9908     22.8087
   205         C         14.9908     22.8087     12.9208
   206         C          7.2788      8.9733     18.9383
   207         C          6.9033      4.7562     15.0967
   208         C         18.9383      7.2788      8.9733
   209         C         15.0967      6.9033      4.7562
   210         C          8.9733     18.9383      7.2788
   211         C          4.7562     15.0967      6.9033
   212         C         23.1842      9.0792     10.7737
   213         C          2.9558     13.2963     11.1492
   214         C         13.2963     11.1492      2.9558
   215         C          9.0792     10.7737     23.1842
   216         C         11.1492      2.9558     13.2963
   217         C         16.1630     17.8142     20.7291
   218         C         11.7967     22.1805      9.3584
   219         C          3.3409      4.1280     18.2908
   220         C         18.2908      3.3409      4.1280
   221         C         20.7291     16.1630     17.8142
   222         C         17.8142     20.7291     16.1630
   223         C          4.1280     18.2908      3.3409
   224         C         23.8317     13.9245     14.7116
   225         C          1.8895     21.3934      0.2383
   226         C          0.2383      1.8895     21.3934
   227         C         21.3934      0.2383      1.8895
   228         C         13.9245     14.7116     23.8317
   229         C         14.7116     23.8317     13.9245
   230         C          6.2558      8.6941     19.9420
   231         C          7.9070      5.7792     15.3759
   232         C         19.9420      6.2558      8.6941
   233         C         15.3759      7.9070      5.7792
   234         C          8.6941     19.9420      6.2558
   235         C          5.7792     15.3759      7.9070
   236         C         22.1805      9.3584     11.7967
   237         C          2.6766     12.2733     10.1455
   238         C         12.2733     10.1455      2.6766
   239         C          9.3584     11.7967     22.1805
   240         C         10.1455      2.6766     12.2733
   241         C         19.2993     15.8910     20.0335
   242         C          9.8735      1.2468     10.0540
   243         C          4.0365      7.2643     20.2140
   244         C         20.2140      4.0365      7.2643
   245         C         20.0335     19.2993     15.8910
   246         C         15.8910     20.0335     19.2993
   247         C          7.2643     20.2140      4.0365
   248         C         21.9085     10.7882     14.0160
   249         C         22.8232     22.0890      2.1615
   250         C          2.1615     22.8232     22.0890
   251         C         22.0890      2.1615     22.8232
   252         C         10.7882     14.0160     21.9085
   253         C         14.0160     21.9085     10.7882
   254         C          8.1790      7.9985     16.8057
   255         C          4.7707      3.8560     16.0715
   256         C         16.8057      8.1790      7.9985
   257         C         16.0715      4.7707      3.8560
   258         C          7.9985     16.8057      8.1790
   259         C          3.8560     16.0715      4.7707
   260         C          1.2468     10.0540      9.8735
   261         C          1.9810     14.1965     13.2818
   262         C         14.1965     13.2818      1.9810
   263         C         10.0540      9.8735      1.2468
   264         C         13.2818      1.9810     14.1965
   265         C         16.8803     15.4770     21.4873
   266         C          9.4595     22.8978      8.6002
   267         C          2.5827      4.8453     20.6280
   268         C         20.6280      2.5827      4.8453
   269         C         21.4873     16.8803     15.4770
   270         C         15.4770     21.4873     16.8803
   271         C          4.8453     20.6280      2.5827
   272         C         21.4945     13.2072     15.4698
   273         C          1.1722     20.6352      2.5755
   274         C          2.5755      1.1722     20.6352
   275         C         20.6352      2.5755      1.1722
   276         C         13.2072     15.4698     21.4945
   277         C         15.4698     21.4945     13.2072
   278         C          8.5930      9.4523     19.2247
   279         C          7.1897      3.4420     14.6177
   280         C         19.2247      8.5930      9.4523
   281         C         14.6177      7.1897      3.4420
   282         C          9.4523     19.2247      8.5930
   283         C          3.4420     14.6177      7.1897
   284         C         22.8978      8.6002      9.4595
   285         C          3.4348     14.6105     10.8628
   286         C         14.6105     10.8628      3.4348
   287         C          8.6002      9.4595     22.8978
   288         C         10.8628      3.4348     14.6105
   289         H         13.4503     21.5980     17.5518
   290         H         15.5805     19.4678     12.5357
   291         H          6.5182      1.4153     14.5070
   292         H         14.5070      6.5182      1.4153
   293         H         17.5518     13.4503     21.5980
   294         H         21.5980     17.5518     13.4503
   295         H          1.4153     14.5070      6.5182
   296         H          3.5455     16.6372     11.5343
   297         H          4.6022      0.5007     20.5245
   298         H         20.5245      4.6022      0.5007
   299         H          0.5007     20.5245      4.6022
   300         H         16.6372     11.5343      3.5455
   301         H         11.5343      3.5455     16.6372
   302         H          2.4720      5.5168     22.6547
   303         H         10.6197      9.5630     18.5532
   304         H         22.6547      2.4720      5.5168
   305         H         18.5532     10.6197      9.5630
   306         H          5.5168     22.6547      2.4720
   307         H          9.5630     18.5532     10.6197
   308         H         19.4678     12.5357     15.5805
   309         H         23.5693      8.4895      7.4328
   310         H          8.4895      7.4328     23.5693
   311         H         12.5357     15.5805     19.4678
   312         H          7.4328     23.5693      8.4895
   313         H         13.7488     20.1273     19.4991
   314         H         14.1098     19.7663     10.5884
   315         H          4.5709      1.7138     15.9777
   316         H         15.9777      4.5709      1.7138
   317         H         19.4991     13.7488     20.1273
   318         H         20.1273     19.4991     13.7488
   319         H          1.7138     15.9777      4.5709
   320         H          2.0748     16.3387     13.4816
   321         H          4.3037     22.6234     21.9952
   322         H         21.9952      4.3037     22.6234
   323         H         22.6234     21.9952      4.3037
   324         H         16.3387     13.4816      2.0748
   325         H         13.4816      2.0748     16.3387
   326         H          3.9427      7.4641     22.3562
   327         H         10.3212      8.0923     16.6059
   328         H         22.3562      3.9427      7.4641
   329         H         16.6059     10.3212      8.0923
   330         H          7.4641     22.3562      3.9427
   331         H          8.0923     16.6059     10.3212
   332         H         19.7663     10.5884     14.1098
   333         H          1.4466      9.9602      7.7313
   334         H          9.9602      7.7313      1.4466
   335         H         10.5884     14.1098     19.7663
   336         H          7.7313      1.4466      9.9602
   337         H         14.0039     17.8985     20.3367
   338         H         11.8810     20.0214      9.7508
   339         H          3.7333      1.9689     18.2065
   340         H         18.2065      3.7333      1.9689
   341         H         20.3367     14.0039     17.8985
   342         H         17.8985     20.3367     14.0039
   343         H          1.9689     18.2065      3.7333
   344         H         23.9160     16.0836     14.3192
   345         H          4.0486     21.7858      0.1540
   346         H          0.1540      4.0486     21.7858
   347         H         21.7858      0.1540      4.0486
   348         H         16.0836     14.3192     23.9160
   349         H         14.3192     23.9160     16.0836
   350         H          6.1715      8.3017     22.1011
   351         H         10.0661      5.8635     15.7683
   352         H         22.1011      6.1715      8.3017
   353         H         15.7683     10.0661      5.8635
   354         H          8.3017     22.1011      6.1715
   355         H          5.8635     15.7683     10.0661
   356         H         20.0214      9.7508     11.8810
   357         H          2.2842     12.1890      7.9864
   358         H         12.1890      7.9864      2.2842
   359         H          9.7508     11.8810     20.0214
   360         H          7.9864      2.2842     12.1890

 General Reference for PM7:
 "Optimization of Parameters for Semiempirical Methods VI: More Modifications to the 
 NDDO Approximations and Re-optimization of Parameters", J. J. P. Stewart, J. Mol. Mod., 1:32, 19 (2013)
 https://link.springer.com/article/10.1007/s00894-012-1667-x

           Empirical Formula: C264 H72 N24  =   360 atoms



      RHF CALCULATION, NO. OF DOUBLY OCCUPIED LEVELS = 624



 ALL CONVERGERS ARE NOW FORCED ON
 SHIFT=10, PULAY ON, CAMP-KING ON
 AND ITERATION COUNTER RESET



 -------------------------------------------------------------------------------
 PM7 CHARGE=0 NOOPT




     NO PARAMETERS MARKED FOR OPTIMIZATION, SO 1SCF WAS USED  
     SCF FIELD WAS ACHIEVED                                   


                              PM7 CALCULATION
                                                       MOPAC v22.1.0 Linux
                                                       Wed Jan 31 14:28:33 2024




          FINAL HEAT OF FORMATION =       2955.85550 KCAL/MOL =   12367.29941 KJ/MOL
          H.o.F. per unit cell    =        123.16065 KCAL, for 24 unit cells, unit cell = C11 H3 N1



          IONIZATION POTENTIAL    =          6.369950 EV
          HOMO LUMO ENERGIES (EV) =         -6.370 -2.974
          NO. OF FILLED LEVELS    =        624
          MOLECULAR WEIGHT        =       3579.6336

                   THE SYSTEM IS A SOLID


                UNIT CELL TRANSLATION VECTORS

              X                Y              Z
    T1 =    24.0700000      0.0000000      0.0000000
    T2 =     0.0000000     24.0700000      0.0000000
    T3 =     0.0000000      0.0000000     24.0700000

          VOLUME OF UNIT CELL     =      13945.313 CUBIC ANGSTROMS

          DENSITY                 =          0.426 GRAMS/CC
                              A   =         24.070 ANGSTROMS
                              B   =         24.070 ANGSTROMS
                              C   =         24.070 ANGSTROMS
                            ALPHA =         90.000 DEGREES
                            BETA  =         90.000 DEGREES
                            GAMMA =         90.000 DEGREES



          SCF CALCULATIONS        =          1

          WALL-CLOCK TIME         =         31 MINUTES AND 35.656 SECONDS
          COMPUTATION TIME        =         31 MINUTES AND 35.624 SECONDS




   ATOM   CHEMICAL          X               Y               Z
  NUMBER   SYMBOL      (ANGSTROMS)     (ANGSTROMS)     (ANGSTROMS)

     1       N         18.45687600     16.94528000     20.56300100   
     2       N         10.92778000      0.40437600      9.52449900   
     3       N          3.50699900      6.42187600     19.15972000   
     4       N         19.15972000      3.50699900      6.42187600   
     5       N         20.56300100     18.45687600     16.94528000   
     6       N         16.94528000     20.56300100     18.45687600   
     7       N          6.42187600     19.15972000      3.50699900   
     8       N         22.96278000     11.63062400     14.54550100   
     9       N         23.66562400     21.55949900      1.10722000   
    10       N          1.10722000     23.66562400     21.55949900   
    11       N         21.55949900      1.10722000     23.66562400   
    12       N         11.63062400     14.54550100     22.96278000   
    13       N         14.54550100     22.96278000     11.63062400   
    14       N          7.12472000      8.52800100     17.64812400   
    15       N          5.61312400      4.91028000     15.54199900   
    16       N         17.64812400      7.12472000      8.52800100   
    17       N         15.54199900      5.61312400      4.91028000   
    18       N          8.52800100     17.64812400      7.12472000   
    19       N          4.91028000     15.54199900      5.61312400   
    20       N          0.40437600      9.52449900     10.92778000   
    21       N          2.51050100     13.14222000     12.43937600   
    22       N         13.14222000     12.43937600      2.51050100   
    23       N          9.52449900     10.92778000      0.40437600   
    24       N         12.43937600      2.51050100     13.14222000   
    25       C         17.76606700     14.46125600     21.22974000   
    26       C          8.44375600     23.78356700      8.85776000   
    27       C          2.84026000      5.73106700     21.64374400   
    28       C         21.64374400      2.84026000      5.73106700   
    29       C         21.22974000     17.76606700     14.46125600   
    30       C         14.46125600     21.22974000     17.76606700   
    31       C          5.73106700     21.64374400      2.84026000   
    32       C         20.47875600     12.32143300     15.21224000   
    33       C          0.28643300     20.89276000      3.59124400   
    34       C          3.59124400      0.28643300     20.89276000   
    35       C         20.89276000      3.59124400      0.28643300   
    36       C         12.32143300     15.21224000     20.47875600   
    37       C         15.21224000     20.47875600     12.32143300   
    38       C          9.60874400      9.19474000     18.33893300   
    39       C          6.30393300      2.42625600     14.87526000   
    40       C         18.33893300      9.60874400      9.19474000   
    41       C         14.87526000      6.30393300      2.42625600   
    42       C          9.19474000     18.33893300      9.60874400   
    43       C          2.42625600     14.87526000      6.30393300   
    44       C         23.78356700      8.85776000      8.44375600   
    45       C          3.17724000     15.62624400     11.74856700   
    46       C         15.62624400     11.74856700      3.17724000   
    47       C          8.85776000      8.44375600     23.78356700   
    48       C         11.74856700      3.17724000     15.62624400   
    49       C         18.94068300     14.63696700     20.42098800   
    50       C          8.61946700      0.88818300      9.66651200   
    51       C          3.64901200      6.90568300     21.46803300   
    52       C         21.46803300      3.64901200      6.90568300   
    53       C         20.42098800     18.94068300     14.63696700   
    54       C         14.63696700     20.42098800     18.94068300   
    55       C          6.90568300     21.46803300      3.64901200   
    56       C         20.65446700     11.14681700     14.40348800   
    57       C         23.18181700     21.70151200      3.41553300   
    58       C          3.41553300     23.18181700     21.70151200   
    59       C         21.70151200      3.41553300     23.18181700   
    60       C         11.14681700     14.40348800     20.65446700   
    61       C         14.40348800     20.65446700     11.14681700   
    62       C          9.43303300      8.38598800     17.16431700   
    63       C          5.12931700      2.60196700     15.68401200   
    64       C         17.16431700      9.43303300      8.38598800   
    65       C         15.68401200      5.12931700      2.60196700   
    66       C          8.38598800     17.16431700      9.43303300   
    67       C          2.60196700     15.68401200      5.12931700   
    68       C          0.88818300      9.66651200      8.61946700   
    69       C          2.36848800     15.45053300     12.92318300   
    70       C         15.45053300     12.92318300      2.36848800   
    71       C          9.66651200      8.61946700      0.88818300   
    72       C         12.92318300      2.36848800     15.45053300   
    73       C         14.79342200     17.30392300     20.81332900   
    74       C         11.28642300     20.81092200      9.27417100   
    75       C          3.25667100      2.75842200     18.80107700   
    76       C         18.80107700      3.25667100      2.75842200   
    77       C         20.81332900     14.79342200     17.30392300   
    78       C         17.30392300     20.81332900     14.79342200   
    79       C          2.75842200     18.80107700      3.25667100   
    80       C         23.32142300     15.29407800     14.79582900   
    81       C          3.25907800     21.30917100      0.74857700   
    82       C          0.74857700      3.25907800     21.30917100   
    83       C         21.30917100      0.74857700      3.25907800   
    84       C         15.29407800     14.79582900     23.32142300   
    85       C         14.79582900     23.32142300     15.29407800   
    86       C          6.76607700      8.77832900     21.31157800   
    87       C          9.27657800      5.26892300     15.29167100   
    88       C         21.31157800      6.76607700      8.77832900   
    89       C         15.29167100      9.27657800      5.26892300   
    90       C          8.77832900     21.31157800      6.76607700   
    91       C          5.26892300     15.29167100      9.27657800   
    92       C         20.81092200      9.27417100     11.28642300   
    93       C          2.76082900     12.78357700      8.77592200   
    94       C         12.78357700      8.77592200      2.76082900   
    95       C          9.27417100     11.28642300     20.81092200   
    96       C          8.77592200      2.76082900     12.78357700   
    97       C         15.55884800     15.38313700     22.14199300   
    98       C          9.36563700     21.57634800      7.94550700   
    99       C          1.92800700      3.52384800     20.72186300   
   100       C         20.72186300      1.92800700      3.52384800   
   101       C         22.14199300     15.55884800     15.38313700   
   102       C         15.38313700     22.14199300     15.55884800   
   103       C          3.52384800     20.72186300      1.92800700   
   104       C         21.40063700     14.52865200     16.12449300   
   105       C          2.49365200     19.98050700      2.66936300   
   106       C          2.66936300      2.49365200     19.98050700   
   107       C         19.98050700      2.66936300      2.49365200   
   108       C         14.52865200     16.12449300     21.40063700   
   109       C         16.12449300     21.40063700     14.52865200   
   110       C          8.68686300     10.10699300     20.54615200   
   111       C          8.51115200      3.34813700     13.96300700   
   112       C         20.54615200      8.68686300     10.10699300   
   113       C         13.96300700      8.51115200      3.34813700   
   114       C         10.10699300     20.54615200      8.68686300   
   115       C          3.34813700     13.96300700      8.51115200   
   116       C         21.57634800      7.94550700      9.36563700   
   117       C          4.08949300     14.70436300      9.54134800   
   118       C         14.70436300      9.54134800      4.08949300   
   119       C          7.94550700      9.36563700     21.57634800   
   120       C          9.54134800      4.08949300     14.70436300   
   121       C         19.21748800     19.98050700     17.98510400   
   122       C         13.96300700      1.16498800     12.10239600   
   123       C          6.08489600      7.18248800     16.12449300   
   124       C         16.12449300      6.08489600      7.18248800   
   125       C         17.98510400     19.21748800     19.98050700   
   126       C         19.98050700     17.98510400     19.21748800   
   127       C          7.18248800     16.12449300      6.08489600   
   128       C          1.92800700     10.87001200     11.96760400   
   129       C         22.90501200      0.06739600     22.14199300   
   130       C         22.14199300     22.90501200      0.06739600   
   131       C          0.06739600     22.14199300     22.90501200   
   132       C         10.87001200     11.96760400      1.92800700   
   133       C         11.96760400      1.92800700     10.87001200   
   134       C          4.08949300      5.95010400     16.88751200   
   135       C          4.85251200      7.94550700     18.11989600   
   136       C         16.88751200      4.08949300      5.95010400   
   137       C         18.11989600      4.85251200      7.94550700   
   138       C          5.95010400     16.88751200      4.08949300   
   139       C          7.94550700     18.11989600      4.85251200   
   140       C          1.16498800     12.10239600     13.96300700   
   141       C         24.00260400     10.10699300     13.19998800   
   142       C         10.10699300     13.19998800     24.00260400   
   143       C         12.10239600     13.96300700      1.16498800   
   144       C         13.19998800     24.00260400     10.10699300   
   145       C         16.54812500     19.02011400     20.18991600   
   146       C         13.00261400     22.56562500      9.89758400   
   147       C          3.88008400      4.51312500     17.08488600   
   148       C         17.08488600      3.88008400      4.51312500   
   149       C         20.18991600     16.54812500     19.02011400   
   150       C         19.02011400     20.18991600     16.54812500   
   151       C          4.51312500     17.08488600      3.88008400   
   152       C          0.96761400     13.53937500     14.17241600   
   153       C          1.50437500     21.93258400     23.10238600   
   154       C         23.10238600      1.50437500     21.93258400   
   155       C         21.93258400     23.10238600      1.50437500   
   156       C         13.53937500     14.17241600      0.96761400   
   157       C         14.17241600      0.96761400     13.53937500   
   158       C          5.04988600      8.15491600     19.55687500   
   159       C          7.52187500      6.98511400     15.91508400   
   160       C         19.55687500      5.04988600      8.15491600   
   161       C         15.91508400      7.52187500      6.98511400   
   162       C          8.15491600     19.55687500      5.04988600   
   163       C          6.98511400     15.91508400      7.52187500   
   164       C         22.56562500      9.89758400     13.00261400   
   165       C          2.13741600     11.06738600     10.53062500   
   166       C         11.06738600     10.53062500      2.13741600   
   167       C          9.89758400     13.00261400     22.56562500   
   168       C         10.53062500      2.13741600     11.06738600   
   169       C         23.22514300     21.99035200     23.90873100   
   170       C         15.97285200      5.17264300      6.17876900   
   171       C          0.16126900     11.19014300     14.11464800   
   172       C         14.11464800      0.16126900     11.19014300   
   173       C         23.90873100     23.22514300     21.99035200   
   174       C         21.99035200     23.90873100     23.22514300   
   175       C         11.19014300     14.11464800      0.16126900   
   176       C          3.93785200      6.86235700     17.89123100   
   177       C         18.89735700     18.21376900     20.13214800   
   178       C         20.13214800     18.89735700     18.21376900   
   179       C         18.21376900     20.13214800     18.89735700   
   180       C          6.86235700     17.89123100      3.93785200   
   181       C         17.89123100      3.93785200      6.86235700   
   182       C          2.07964800     11.87373100     12.87985700   
   183       C          0.84485700      9.95535200     12.19626900   
   184       C         12.87985700      2.07964800     11.87373100   
   185       C         12.19626900      0.84485700      9.95535200   
   186       C         11.87373100     12.87985700      2.07964800   
   187       C          9.95535200     12.19626900      0.84485700   
   188       C          5.17264300      6.17876900     15.97285200   
   189       C          5.85623100      8.09714800     17.20764300   
   190       C          8.09714800     17.20764300      5.85623100   
   191       C          6.17876900     15.97285200      5.17264300   
   192       C         17.20764300      5.85623100      8.09714800   
   193       C         17.16672400     16.79123200     21.00829600   
   194       C         10.77373200     23.18422400      9.07920400   
   195       C          3.06170400      5.13172400     19.31376800   
   196       C         19.31376800      3.06170400      5.13172400   
   197       C         21.00829600     17.16672400     16.79123200   
   198       C         16.79123200     21.00829600     17.16672400   
   199       C          5.13172400     19.31376800      3.06170400   
   200       C         22.80873200     12.92077600     14.99079600   
   201       C          0.88577600     21.11420400      1.26126800   
   202       C          1.26126800      0.88577600     21.11420400   
   203       C         21.11420400      1.26126800      0.88577600   
   204       C         12.92077600     14.99079600     22.80873200   
   205       C         14.99079600     22.80873200     12.92077600   
   206       C          7.27876800      8.97329600     18.93827600   
   207       C          6.90327600      4.75623200     15.09670400   
   208       C         18.93827600      7.27876800      8.97329600   
   209       C         15.09670400      6.90327600      4.75623200   
   210       C          8.97329600     18.93827600      7.27876800   
   211       C          4.75623200     15.09670400      6.90327600   
   212       C         23.18422400      9.07920400     10.77373200   
   213       C          2.95579600     13.29626800     11.14922400   
   214       C         13.29626800     11.14922400      2.95579600   
   215       C          9.07920400     10.77373200     23.18422400   
   216       C         11.14922400      2.95579600     13.29626800   
   217       C         16.16300500     17.81420700     20.72908400   
   218       C         11.79670700     22.18050500      9.35841600   
   219       C          3.34091600      4.12800500     18.29079300   
   220       C         18.29079300      3.34091600      4.12800500   
   221       C         20.72908400     16.16300500     17.81420700   
   222       C         17.81420700     20.72908400     16.16300500   
   223       C          4.12800500     18.29079300      3.34091600   
   224       C         23.83170700     13.92449500     14.71158400   
   225       C          1.88949500     21.39341600      0.23829300   
   226       C          0.23829300      1.88949500     21.39341600   
   227       C         21.39341600      0.23829300      1.88949500   
   228       C         13.92449500     14.71158400     23.83170700   
   229       C         14.71158400     23.83170700     13.92449500   
   230       C          6.25579300      8.69408400     19.94199500   
   231       C          7.90699500      5.77920700     15.37591600   
   232       C         19.94199500      6.25579300      8.69408400   
   233       C         15.37591600      7.90699500      5.77920700   
   234       C          8.69408400     19.94199500      6.25579300   
   235       C          5.77920700     15.37591600      7.90699500   
   236       C         22.18050500      9.35841600     11.79670700   
   237       C          2.67658400     12.27329300     10.14550500   
   238       C         12.27329300     10.14550500      2.67658400   
   239       C          9.35841600     11.79670700     22.18050500   
   240       C         10.14550500      2.67658400     12.27329300   
   241       C         19.29932600     15.89101400     20.03346100   
   242       C          9.87351400      1.24682600     10.05403900   
   243       C          4.03653900      7.26432600     20.21398600   
   244       C         20.21398600      4.03653900      7.26432600   
   245       C         20.03346100     19.29932600     15.89101400   
   246       C         15.89101400     20.03346100     19.29932600   
   247       C          7.26432600     20.21398600      4.03653900   
   248       C         21.90851400     10.78817400     14.01596100   
   249       C         22.82317400     22.08903900      2.16148600   
   250       C          2.16148600     22.82317400     22.08903900   
   251       C         22.08903900      2.16148600     22.82317400   
   252       C         10.78817400     14.01596100     21.90851400   
   253       C         14.01596100     21.90851400     10.78817400   
   254       C          8.17898600      7.99846100     16.80567400   
   255       C          4.77067400      3.85601400     16.07153900   
   256       C         16.80567400      8.17898600      7.99846100   
   257       C         16.07153900      4.77067400      3.85601400   
   258       C          7.99846100     16.80567400      8.17898600   
   259       C          3.85601400     16.07153900      4.77067400   
   260       C          1.24682600     10.05403900      9.87351400   
   261       C          1.98096100     14.19648600     13.28182600   
   262       C         14.19648600     13.28182600      1.98096100   
   263       C         10.05403900      9.87351400      1.24682600   
   264       C         13.28182600      1.98096100     14.19648600   
   265       C         16.88029100     15.47701000     21.48728900   
   266       C          9.45951000     22.89779100      8.60021100   
   267       C          2.58271100      4.84529100     20.62799000   
   268       C         20.62799000      2.58271100      4.84529100   
   269       C         21.48728900     16.88029100     15.47701000   
   270       C         15.47701000     21.48728900     16.88029100   
   271       C          4.84529100     20.62799000      2.58271100   
   272       C         21.49451000     13.20720900     15.46978900   
   273       C          1.17220900     20.63521100      2.57549000   
   274       C          2.57549000      1.17220900     20.63521100   
   275       C         20.63521100      2.57549000      1.17220900   
   276       C         13.20720900     15.46978900     21.49451000   
   277       C         15.46978900     21.49451000     13.20720900   
   278       C          8.59299000      9.45228900     19.22470900   
   279       C          7.18970900      3.44201000     14.61771100   
   280       C         19.22470900      8.59299000      9.45228900   
   281       C         14.61771100      7.18970900      3.44201000   
   282       C          9.45228900     19.22470900      8.59299000   
   283       C          3.44201000     14.61771100      7.18970900   
   284       C         22.89779100      8.60021100      9.45951000   
   285       C          3.43478900     14.61049000     10.86279100   
   286       C         14.61049000     10.86279100      3.43478900   
   287       C          8.60021100      9.45951000     22.89779100   
   288       C         10.86279100      3.43478900     14.61049000   
   289       H         13.45031600     21.59801100     17.55184400   
   290       H         15.58051100     19.46781600     12.53565600   
   291       H          6.51815600      1.41531600     14.50698900   
   292       H         14.50698900      6.51815600      1.41531600   
   293       H         17.55184400     13.45031600     21.59801100   
   294       H         21.59801100     17.55184400     13.45031600   
   295       H          1.41531600     14.50698900      6.51815600   
   296       H          3.54551100     16.63718400     11.53434400   
   297       H          4.60218400      0.50065600     20.52448900   
   298       H         20.52448900      4.60218400      0.50065600   
   299       H          0.50065600     20.52448900      4.60218400   
   300       H         16.63718400     11.53434400      3.54551100   
   301       H         11.53434400      3.54551100     16.63718400   
   302       H          2.47198900      5.51684400     22.65468400   
   303       H         10.61968400      9.56301100     18.55315600   
   304       H         22.65468400      2.47198900      5.51684400   
   305       H         18.55315600     10.61968400      9.56301100   
   306       H          5.51684400     22.65468400      2.47198900   
   307       H          9.56301100     18.55315600     10.61968400   
   308       H         19.46781600     12.53565600     15.58051100   
   309       H         23.56934400      8.48948900      7.43281600   
   310       H          8.48948900      7.43281600     23.56934400   
   311       H         12.53565600     15.58051100     19.46781600   
   312       H          7.43281600     23.56934400      8.48948900   
   313       H         13.74878400     20.12733400     19.49910700   
   314       H         14.10983400     19.76628400     10.58839300   
   315       H          4.57089300      1.71378400     15.97766600   
   316       H         15.97766600      4.57089300      1.71378400   
   317       H         19.49910700     13.74878400     20.12733400   
   318       H         20.12733400     19.49910700     13.74878400   
   319       H          1.71378400     15.97766600      4.57089300   
   320       H          2.07483400     16.33871600     13.48160700   
   321       H          4.30371600     22.62339300     21.99516600   
   322       H         21.99516600      4.30371600     22.62339300   
   323       H         22.62339300     21.99516600      4.30371600   
   324       H         16.33871600     13.48160700      2.07483400   
   325       H         13.48160700      2.07483400     16.33871600   
   326       H          3.94266600      7.46410700     22.35621600   
   327       H         10.32121600      8.09233400     16.60589300   
   328       H         22.35621600      3.94266600      7.46410700   
   329       H         16.60589300     10.32121600      8.09233400   
   330       H          7.46410700     22.35621600      3.94266600   
   331       H          8.09233400     16.60589300     10.32121600   
   332       H         19.76628400     10.58839300     14.10983400   
   333       H          1.44660700      9.96016600      7.73128400   
   334       H          9.96016600      7.73128400      1.44660700   
   335       H         10.58839300     14.10983400     19.76628400   
   336       H          7.73128400      1.44660700      9.96016600   
   337       H         14.00392600     17.89845200     20.33674300   
   338       H         11.88095200     20.02142600      9.75075700   
   339       H          3.73325700      1.96892600     18.20654800   
   340       H         18.20654800      3.73325700      1.96892600   
   341       H         20.33674300     14.00392600     17.89845200   
   342       H         17.89845200     20.33674300     14.00392600   
   343       H          1.96892600     18.20654800      3.73325700   
   344       H         23.91595200     16.08357400     14.31924300   
   345       H          4.04857400     21.78575700      0.15404800   
   346       H          0.15404800      4.04857400     21.78575700   
   347       H         21.78575700      0.15404800      4.04857400   
   348       H         16.08357400     14.31924300     23.91595200   
   349       H         14.31924300     23.91595200     16.08357400   
   350       H          6.17154800      8.30174300     22.10107400   
   351       H         10.06607400      5.86345200     15.76825700   
   352       H         22.10107400      6.17154800      8.30174300   
   353       H         15.76825700     10.06607400      5.86345200   
   354       H          8.30174300     22.10107400      6.17154800   
   355       H          5.86345200     15.76825700     10.06607400   
   356       H         20.02142600      9.75075700     11.88095200   
   357       H          2.28424300     12.18904800      7.98642600   
   358       H         12.18904800      7.98642600      2.28424300   
   359       H          9.75075700     11.88095200     20.02142600   
   360       H          7.98642600      2.28424300     12.18904800   
   361      Tv         24.07000000      0.00000000      0.00000000   
   362      Tv          0.00000000     24.07000000      0.00000000   
   363      Tv          0.00000000      0.00000000     24.07000000   

                             CARTESIAN COORDINATES

   1    N       18.456876000    16.945280000    20.563001000
   2    N       10.927780000     0.404376000     9.524499000
   3    N        3.506999000     6.421876000    19.159720000
   4    N       19.159720000     3.506999000     6.421876000
   5    N       20.563001000    18.456876000    16.945280000
   6    N       16.945280000    20.563001000    18.456876000
   7    N        6.421876000    19.159720000     3.506999000
   8    N       22.962780000    11.630624000    14.545501000
   9    N       23.665624000    21.559499000     1.107220000
  10    N        1.107220000    23.665624000    21.559499000
  11    N       21.559499000     1.107220000    23.665624000
  12    N       11.630624000    14.545501000    22.962780000
  13    N       14.545501000    22.962780000    11.630624000
  14    N        7.124720000     8.528001000    17.648124000
  15    N        5.613124000     4.910280000    15.541999000
  16    N       17.648124000     7.124720000     8.528001000
  17    N       15.541999000     5.613124000     4.910280000
  18    N        8.528001000    17.648124000     7.124720000
  19    N        4.910280000    15.541999000     5.613124000
  20    N        0.404376000     9.524499000    10.927780000
  21    N        2.510501000    13.142220000    12.439376000
  22    N       13.142220000    12.439376000     2.510501000
  23    N        9.524499000    10.927780000     0.404376000
  24    N       12.439376000     2.510501000    13.142220000
  25    C       17.766067000    14.461256000    21.229740000
  26    C        8.443756000    23.783567000     8.857760000
  27    C        2.840260000     5.731067000    21.643744000
  28    C       21.643744000     2.840260000     5.731067000
  29    C       21.229740000    17.766067000    14.461256000
  30    C       14.461256000    21.229740000    17.766067000
  31    C        5.731067000    21.643744000     2.840260000
  32    C       20.478756000    12.321433000    15.212240000
  33    C        0.286433000    20.892760000     3.591244000
  34    C        3.591244000     0.286433000    20.892760000
  35    C       20.892760000     3.591244000     0.286433000
  36    C       12.321433000    15.212240000    20.478756000
  37    C       15.212240000    20.478756000    12.321433000
  38    C        9.608744000     9.194740000    18.338933000
  39    C        6.303933000     2.426256000    14.875260000
  40    C       18.338933000     9.608744000     9.194740000
  41    C       14.875260000     6.303933000     2.426256000
  42    C        9.194740000    18.338933000     9.608744000
  43    C        2.426256000    14.875260000     6.303933000
  44    C       23.783567000     8.857760000     8.443756000
  45    C        3.177240000    15.626244000    11.748567000
  46    C       15.626244000    11.748567000     3.177240000
  47    C        8.857760000     8.443756000    23.783567000
  48    C       11.748567000     3.177240000    15.626244000
  49    C       18.940683000    14.636967000    20.420988000
  50    C        8.619467000     0.888183000     9.666512000
  51    C        3.649012000     6.905683000    21.468033000
  52    C       21.468033000     3.649012000     6.905683000
  53    C       20.420988000    18.940683000    14.636967000
  54    C       14.636967000    20.420988000    18.940683000
  55    C        6.905683000    21.468033000     3.649012000
  56    C       20.654467000    11.146817000    14.403488000
  57    C       23.181817000    21.701512000     3.415533000
  58    C        3.415533000    23.181817000    21.701512000
  59    C       21.701512000     3.415533000    23.181817000
  60    C       11.146817000    14.403488000    20.654467000
  61    C       14.403488000    20.654467000    11.146817000
  62    C        9.433033000     8.385988000    17.164317000
  63    C        5.129317000     2.601967000    15.684012000
  64    C       17.164317000     9.433033000     8.385988000
  65    C       15.684012000     5.129317000     2.601967000
  66    C        8.385988000    17.164317000     9.433033000
  67    C        2.601967000    15.684012000     5.129317000
  68    C        0.888183000     9.666512000     8.619467000
  69    C        2.368488000    15.450533000    12.923183000
  70    C       15.450533000    12.923183000     2.368488000
  71    C        9.666512000     8.619467000     0.888183000
[...]
  293          H           0.161367        0.8386     0.83863
  294          H           0.160110        0.8399     0.83989
  295          H           0.154542        0.8455     0.84546
  296          H           0.173024        0.8270     0.82698
  297          H           0.174570        0.8254     0.82543
  298          H           0.160413        0.8396     0.83959
  299          H           0.173853        0.8261     0.82615
  300          H           0.158857        0.8411     0.84114
  301          H           0.152979        0.8470     0.84702
  302          H           0.158109        0.8419     0.84189
  303          H           0.160716        0.8393     0.83928
  304          H           0.174954        0.8250     0.82505
  305          H           0.165480        0.8345     0.83452
  306          H           0.162602        0.8374     0.83740
  307          H           0.168597        0.8314     0.83140
  308          H           0.176059        0.8239     0.82394
  309          H           0.163322        0.8367     0.83668
  310          H           0.172880        0.8271     0.82712
  311          H           0.171230        0.8288     0.82877
  312          H           0.161395        0.8386     0.83860
  313          H           0.177031        0.8230     0.82297
  314          H           0.181070        0.8189     0.81893
  315          H           0.173707        0.8263     0.82629
  316          H           0.178663        0.8213     0.82134
  317          H           0.173208        0.8268     0.82679
  318          H           0.183485        0.8165     0.81651
  319          H           0.175890        0.8241     0.82411
  320          H           0.177520        0.8225     0.82248
  321          H           0.181608        0.8184     0.81839
  322          H           0.188101        0.8119     0.81190
  323          H           0.174698        0.8253     0.82530
  324          H           0.185389        0.8146     0.81461
  325          H           0.175020        0.8250     0.82498
  326          H           0.174658        0.8253     0.82534
  327          H           0.185134        0.8149     0.81487
  328          H           0.176381        0.8236     0.82362
  329          H           0.188711        0.8113     0.81129
  330          H           0.183894        0.8161     0.81611
  331          H           0.176369        0.8236     0.82363
  332          H           0.174775        0.8252     0.82522
  333          H           0.189553        0.8104     0.81045
  334          H           0.174200        0.8258     0.82580
  335          H           0.182004        0.8180     0.81800
  336          H           0.173235        0.8268     0.82676
  337          H           0.158216        0.8418     0.84178
  338          H           0.173644        0.8264     0.82636
  339          H           0.156842        0.8432     0.84316
  340          H           0.172763        0.8272     0.82724
  341          H           0.160510        0.8395     0.83949
  342          H           0.175979        0.8240     0.82402
  343          H           0.165144        0.8349     0.83486
  344          H           0.171308        0.8287     0.82869
  345          H           0.173796        0.8262     0.82620
  346          H           0.177628        0.8224     0.82237
  347          H           0.153498        0.8465     0.84650
  348          H           0.176070        0.8239     0.82393
  349          H           0.167054        0.8329     0.83295
  350          H           0.161808        0.8382     0.83819
  351          H           0.177379        0.8226     0.82262
  352          H           0.159022        0.8410     0.84098
  353          H           0.177494        0.8225     0.82251
  354          H           0.180876        0.8191     0.81912
  355          H           0.151620        0.8484     0.84838
  356          H           0.156823        0.8432     0.84318
  357          H           0.178689        0.8213     0.82131
  358          H           0.154955        0.8450     0.84504
  359          H           0.172918        0.8271     0.82708
  360          H           0.153562        0.8464     0.84644


          ATOMIC ORBITAL ELECTRON POPULATIONS

     Atom    s        px        py        pz   
    1  N   1.52933   1.15129   1.11952   1.36613
    2  N   1.52671   1.12276   1.14012   1.36672
    3  N   1.53027   1.36470   1.15221   1.12246
    4  N   1.52792   1.11121   1.40345   1.16042
    5  N   1.53366   1.37064   1.16806   1.12443
    6  N   1.52606   1.12191   1.34058   1.13983
    7  N   1.53262   1.16539   1.12291   1.36184
    8  N   1.52726   1.11194   1.15701   1.39551
    9  N   1.52653   1.14539   1.36633   1.11690
   10  N   1.52659   1.12284   1.14167   1.30366
   11  N   1.53473   1.36889   1.12728   1.16583
   12  N   1.52706   1.14219   1.30963   1.12368
   13  N   1.53374   1.42202   1.11466   1.17893
   14  N   1.53205   1.12581   1.35006   1.15889
   15  N   1.52595   1.14091   1.11977   1.34263
   16  N   1.53654   1.16573   1.13445   1.35257
   17  N   1.52392   1.31854   1.13966   1.11666
   18  N   1.52582   1.37663   1.14262   1.11905
   19  N   1.53304   1.12254   1.37575   1.16061
   20  N   1.53655   1.16629   1.35621   1.13414
   21  N   1.52397   1.31394   1.11726   1.13944
   22  N   1.53376   1.12668   1.16272   1.36454
   23  N   1.52655   1.35836   1.11751   1.14438
   24  N   1.53459   1.16666   1.38992   1.11971
   25  C   1.08388   0.96669   1.06872   0.98612
   26  C   1.07788   1.06908   0.98648   1.02580
   27  C   1.08568   0.96921   0.95990   1.06490
   28  C   1.07518   1.08911   1.07687   1.01129
   29  C   1.09367   0.91323   0.93579   1.06355
   30  C   1.08044   1.08290   1.03619   0.99176
   31  C   1.09379   0.93476   1.06603   0.91602
   32  C   1.07503   1.09006   1.01126   1.07874
   33  C   1.07893   0.99765   1.05031   1.08577
   34  C   1.08482   1.08503   0.97675   1.00918
   35  C   1.09415   0.90709   1.06052   0.93406
   36  C   1.08484   0.97571   1.00506   1.08182
   37  C   1.09218   0.92925   1.06789   0.94184
   38  C   1.09223   1.06487   0.92709   0.94094
   39  C   1.07982   0.99478   1.08402   1.04247
   40  C   1.09380   0.94339   1.06815   0.92299
   41  C   1.07940   1.05039   0.99590   1.08798
   42  C   1.07816   1.04139   0.99436   1.07793
   43  C   1.08960   1.05816   0.93046   0.94292
   44  C   1.09410   0.94092   0.91696   1.06530
   45  C   1.07947   1.04971   1.08789   0.99591
   46  C   1.09311   1.06016   0.93548   0.91255
   47  C   1.07951   1.04504   1.08497   0.99502
   48  C   1.09114   0.93717   0.91733   1.05637
   49  C   1.07560   1.03790   1.04272   1.06020
   50  C   1.08077   1.04172   1.01509   1.01580
   51  C   1.07314   1.07879   1.04802   1.04597
   52  C   1.09119   1.03234   0.95781   0.98477
   53  C   1.06751   1.12834   1.07838   1.04947
   54  C   1.08622   1.04133   0.99702   1.00548
   55  C   1.06913   1.07185   1.04752   1.11711
   56  C   1.09171   1.03211   0.98264   0.95424
   57  C   1.08853   0.99450   0.97854   1.03738
   58  C   1.08406   1.04116   1.01695   1.01674
   59  C   1.06735   1.13130   1.05249   1.08021
   60  C   1.08290   1.01997   1.02358   1.04284
   61  C   1.07036   1.10840   1.04453   1.06782
   62  C   1.07049   1.05030   1.10866   1.06664
   63  C   1.08613   1.00478   1.04005   0.99674
   64  C   1.07067   1.07136   1.05060   1.11267
   65  C   1.08800   0.98010   0.99716   1.03608
   66  C   1.08679   0.98659   0.99968   1.04105
   67  C   1.06654   1.04844   1.12338   1.07361
   68  C   1.06928   1.07566   1.12107   1.05182
   69  C   1.08759   0.98333   1.03659   0.99875
   70  C   1.06761   1.05200   1.07741   1.12748
   71  C   1.08735   0.98706   1.03792   0.99899
   72  C   1.06366   1.08389   1.14254   1.04852
   73  C   1.07733   1.01313   1.00942   1.02404
   74  C   1.08321   1.01659   1.01856   1.01814
   75  C   1.07998   0.99536   1.01275   1.00105
   76  C   1.06746   1.03984   1.15897   1.02013
   77  C   1.09052   0.91037   1.01011   0.98114
   78  C   1.07091   1.04163   1.14869   1.02598
   79  C   1.08918   1.01339   0.98758   0.93455
   80  C   1.06719   1.04082   1.02113   1.16127
   81  C   1.06573   1.02317   1.17969   1.04672
   82  C   1.06611   1.04891   1.02074   1.17712
   83  C   1.08862   0.91134   0.98257   1.00535
   84  C   1.06786   1.02103   1.15553   1.04282
   85  C   1.09217   0.92173   0.98364   1.01616
   86  C   1.08633   0.99158   0.95057   1.01220
   87  C   1.06457   1.02412   1.05445   1.20320
   88  C   1.07559   1.00546   1.00873   1.04054
   89  C   1.06597   1.19449   1.02589   1.05184
   90  C   1.07800   1.08676   1.02302   1.03179
   91  C   1.08583   0.98664   0.92934   1.00595
   92  C   1.07839   1.00590   1.01082   1.00084
   93  C   1.06479   1.20426   1.05479   1.02496
   94  C   1.08764   0.98373   1.00619   0.91925
   95  C   1.06481   1.18475   1.04880   1.02205
   96  C   1.08707   1.00718   0.92578   0.98605
   97  C   1.06667   0.94327   0.95503   0.94365
   98  C   1.07196   0.93895   0.96014   0.95620
   99  C   1.06920   0.93292   0.94175   0.92884
  100  C   1.04671   1.15275   1.03606   0.96660
  101  C   1.06779   0.93669   0.93720   0.92230
  102  C   1.04809   1.13434   1.02737   0.96534
  103  C   1.06990   0.93699   0.91527   0.93227
  104  C   1.04583   1.15885   0.96488   1.03739
  105  C   1.04705   0.96316   1.02894   1.14746
  106  C   1.04845   1.12584   0.95388   1.01670
  107  C   1.06744   0.93584   0.91998   0.93699
  108  C   1.05154   0.95330   1.00425   1.09784
  109  C   1.07158   0.93863   0.91437   0.94170
  110  C   1.06970   0.91653   0.93080   0.93784
  111  C   1.04705   0.96604   1.15228   1.03201
  112  C   1.05359   0.94612   1.05276   0.99173
  113  C   1.04591   1.03514   0.96635   1.15901
  114  C   1.06795   0.98099   0.96643   0.99535
  115  C   1.07315   0.88349   0.91800   0.93634
  116  C   1.05642   0.94507   0.97955   1.02387
  117  C   1.04648   1.03383   1.15684   0.96543
  118  C   1.07249   0.88866   0.93501   0.92141
  119  C   1.04714   1.02597   1.14364   0.96136
  120  C   1.07311   0.93694   0.91812   0.88262
  121  C   1.05142   0.99161   1.05195   0.95392
  122  C   1.05732   1.02166   0.98245   0.97221
  123  C   1.05730   0.95422   0.97260   1.01486
  124  C   1.04313   1.09203   0.96011   0.99875
  125  C   1.06228   0.96725   0.96438   0.99230
  126  C   1.05543   1.02394   0.97018   0.98032
  127  C   1.05879   0.98169   1.02014   0.97522
  128  C   1.04465   1.08139   0.99393   0.95959
  129  C   1.05376   0.97064   0.95661   1.01977
  130  C   1.05503   1.03143   0.98926   0.97493
  131  C   1.06437   0.95659   0.98315   0.96246
  132  C   1.05634   0.98217   0.97262   1.02103
  133  C   1.05889   0.97690   1.02663   0.97905
  134  C   1.06149   0.99332   0.96697   0.96609
  135  C   1.05648   0.97022   1.01100   0.96579
  136  C   1.06555   0.97983   0.99992   0.96594
  137  C   1.03986   0.98238   1.05214   1.13335
  138  C   1.05443   0.96760   0.97738   1.02468
  139  C   1.05079   1.06929   0.95539   1.00270
  140  C   1.06545   0.97723   0.96370   0.99647
  141  C   1.04135   0.98146   1.12339   1.04557
  142  C   1.06423   0.97987   0.95966   0.95680
  143  C   1.05534   0.95652   1.01168   0.96752
  144  C   1.04092   1.04053   0.96216   1.13601
  145  C   1.04582   0.94831   0.99445   1.12815
  146  C   1.07332   0.95628   0.97431   0.97374
  147  C   1.04646   1.11823   0.94876   0.98995
  148  C   1.05465   0.99310   1.10046   0.95152
  149  C   1.04615   1.10253   0.94454   0.98361
  150  C   1.05430   1.00787   1.10814   0.97116
  151  C   1.03817   0.94652   1.00830   1.15793
  152  C   1.05424   0.99486   0.95330   1.10328
  153  C   1.04944   0.95991   1.13682   1.01164
  154  C   1.04186   1.03025   0.96078   1.17801
  155  C   1.05564   1.04144   0.95731   0.94271
  156  C   1.04120   0.96057   1.17929   1.02873
  157  C   1.03519   1.18085   1.01693   0.94305
  158  C   1.04244   0.99776   1.13383   0.94840
  159  C   1.04849   0.96582   1.02070   1.14867
  160  C   1.07385   0.94642   0.92452   0.93191
  161  C   1.04553   1.15014   0.96343   1.01940
  162  C   1.05939   1.07156   0.97209   0.99292
  163  C   1.05318   0.96478   1.06561   0.94182
  164  C   1.07273   0.94602   0.93527   0.92366
  165  C   1.04433   1.15981   1.02328   0.96303
  166  C   1.05270   0.96602   0.94379   1.06198
  167  C   1.04796   1.14611   1.01451   0.95919
  168  C   1.05001   0.93693   1.08260   0.97154
  169  C   1.05427   0.99594   1.02793   0.85830
  170  C   1.04796   1.05075   0.98710   0.86829
  171  C   1.06067   0.85161   0.97075   0.96078
  172  C   1.05593   0.99073   0.85672   0.95835
  173  C   1.04407   0.86977   1.00304   1.09915
  174  C   1.04061   1.10070   0.86169   0.99492
  175  C   1.04384   1.00550   1.10439   0.86931
  176  C   1.04399   1.09492   1.00373   0.86297
  177  C   1.04600   1.00023   0.86260   1.07826
  178  C   1.04439   1.08024   0.98550   0.86252
  179  C   1.05039   0.86087   1.05119   0.99915
  180  C   1.04737   0.97976   0.86304   1.06265
  181  C   1.06171   0.85148   0.95120   0.96696
  182  C   1.04729   1.05854   0.86864   0.98955
  183  C   1.04570   0.97961   1.04716   0.84990
  184  C   1.05121   0.98551   1.03730   0.86273
  185  C   1.04991   0.85371   0.98946   1.02701
  186  C   1.04058   0.86327   0.99824   1.10741
  187  C   1.05214   1.04493   0.86013   1.00004
  188  C   1.05009   1.00272   0.86297   1.06069
  189  C   1.04226   0.86611   1.10630   0.99733
  190  C   1.05518   1.00825   0.98856   0.85521
  191  C   1.04452   0.86086   1.07758   0.99541
  192  C   1.04688   0.97698   0.84813   1.03629
  193  C   1.07738   0.80041   0.98421   0.93744
  194  C   1.06248   0.98775   0.81876   1.01156
  195  C   1.07895   0.91643   0.79923   0.97849
  196  C   1.06608   1.01349   1.05956   0.81169
  197  C   1.08208   0.89069   0.79221   0.97169
  198  C   1.06485   1.00764   1.07033   0.81876
  199  C   1.08046   0.79510   0.97605   0.91855
  200  C   1.06660   1.01345   0.81193   1.05887
  201  C   1.06876   0.81425   1.05281   1.01026
  202  C   1.07719   1.00926   0.80856   1.02169
  203  C   1.08402   0.86009   0.96766   0.78888
  204  C   1.07707   0.80853   1.01166   1.00515
  205  C   1.07254   0.95930   0.97770   0.80049
  206  C   1.08141   0.97564   0.90911   0.79591
  207  C   1.06820   0.81675   1.01173   1.06506
  208  C   1.08860   0.78737   0.97891   0.85935
  209  C   1.06554   1.08957   0.81681   1.01588
  210  C   1.05753   1.08107   0.82445   1.00099
  211  C   1.08110   0.96851   0.87270   0.79085
  212  C   1.08752   0.78737   0.85508   0.97539
  213  C   1.06701   1.08426   1.01625   0.81618
  214  C   1.08278   0.96835   0.79094   0.87041
  215  C   1.07044   1.04477   1.00990   0.81296
  216  C   1.08026   0.78902   0.88164   0.96942
  217  C   1.04669   0.96111   0.96190   1.09403
  218  C   1.06204   0.95265   0.96900   1.01625
  219  C   1.04283   1.12721   0.95922   0.96925
  220  C   1.06553   0.93535   0.93637   0.96718
  221  C   1.03335   1.20495   0.95351   0.98979
  222  C   1.07335   0.92886   0.87722   0.95896
  223  C   1.04003   0.94823   0.98178   1.14263
  224  C   1.06641   0.93412   0.96587   0.92821
  225  C   1.07186   0.96241   0.88241   0.92692
  226  C   1.06991   0.92839   0.95592   0.89205
  227  C   1.02801   1.25822   0.99101   0.96347
  228  C   1.06730   0.95485   0.91346   0.93347
  229  C   1.04075   1.12761   0.98354   0.94623
  230  C   1.03971   0.97935   1.14979   0.95224
  231  C   1.07547   0.96031   0.92166   0.85111
  232  C   1.03599   0.97465   0.97404   1.21179
  233  C   1.07468   0.85116   0.95668   0.92102
  234  C   1.07199   0.90814   0.96276   0.93742
  235  C   1.03106   0.98349   1.23319   0.96501
  236  C   1.03264   0.97296   1.23783   0.98023
  237  C   1.07495   0.84768   0.91994   0.95672
  238  C   1.03060   0.98845   0.96147   1.23556
  239  C   1.07131   0.88561   0.92641   0.96268
  240  C   1.03237   0.96310   1.22161   0.98437
  241  C   1.07195   0.96507   0.86089   0.96600
  242  C   1.06825   0.86175   0.97780   1.00554
  243  C   1.07461   0.94829   0.95200   0.85792
  244  C   1.07149   0.87539   1.00453   0.98063
  245  C   1.08387   0.89395   0.90742   0.86259
  246  C   1.07449   0.86357   0.97473   0.96339
  247  C   1.08216   0.91779   0.86672   0.90557
  248  C   1.07055   0.87517   0.98631   1.00962
  249  C   1.07226   0.98110   0.99323   0.86739
  250  C   1.07339   0.86669   0.96112   0.96094
  251  C   1.08502   0.88527   0.85525   0.90194
  252  C   1.07432   0.95724   0.95560   0.86465
  253  C   1.08512   0.90358   0.87306   0.91063
  254  C   1.08167   0.86001   0.90393   0.91805
  255  C   1.07344   0.96822   0.86434   0.97811
  256  C   1.08635   0.90592   0.85593   0.89210
  257  C   1.06783   0.99588   0.97938   0.87183
  258  C   1.07377   0.99036   0.96679   0.86540
  259  C   1.07760   0.85501   0.92431   0.93310
  260  C   1.08653   0.90301   0.88832   0.85513
  261  C   1.06813   0.99357   0.87143   0.97846
  262  C   1.08322   0.85552   0.90935   0.89324
  263  C   1.07221   0.98882   0.86615   0.97922
  264  C   1.07879   0.92353   0.91414   0.85455
  265  C   1.05479   1.01019   0.96751   1.08669
  266  C   1.05235   0.97074   0.99897   1.06947
  267  C   1.05242   1.11124   1.01539   0.97348
  268  C   1.07224   0.93899   0.91421   0.96385
  269  C   1.05462   1.12458   1.01754   0.97971
  270  C   1.06488   0.94587   0.96169   0.97798
  271  C   1.05586   1.01504   0.97846   1.11474
  272  C   1.07212   0.93728   0.96415   0.91249
  273  C   1.06789   0.97560   0.94353   0.94089
  274  C   1.06721   0.94312   0.98824   0.97522
  275  C   1.05139   1.14629   0.98035   1.02511
  276  C   1.06541   0.99101   0.99131   0.94780
  277  C   1.06004   1.08061   0.97930   1.00095
  278  C   1.05446   0.97754   1.11929   1.01770
  279  C   1.06676   0.97780   0.94236   0.95120
  280  C   1.05651   1.01647   0.96477   1.09362
  281  C   1.06883   0.93405   0.97254   0.94017
  282  C   1.06163   0.99430   0.98070   0.96174
  283  C   1.04716   0.98205   1.16532   1.02861
  284  C   1.05451   1.01921   1.11157   0.96980
  285  C   1.06916   0.93515   0.93995   0.97363
  286  C   1.05043   0.98247   1.02644   1.15373
  287  C   1.06739   0.95126   0.94091   0.97871
  288  C   1.04627   1.03016   1.17228   0.98296
  289  H   0.82824
  290  H   0.83685
  291  H   0.83047
  292  H   0.82532
  293  H   0.83863
  294  H   0.83989
  295  H   0.84546
  296  H   0.82698
  297  H   0.82543
  298  H   0.83959
  299  H   0.82615
  300  H   0.84114
  301  H   0.84702
  302  H   0.84189
  303  H   0.83928
  304  H   0.82505
  305  H   0.83452
  306  H   0.83740
  307  H   0.83140
  308  H   0.82394
  309  H   0.83668
  310  H   0.82712
  311  H   0.82877
  312  H   0.83860
  313  H   0.82297
  314  H   0.81893
  315  H   0.82629
  316  H   0.82134
  317  H   0.82679
  318  H   0.81651
  319  H   0.82411
  320  H   0.82248
  321  H   0.81839
  322  H   0.81190
  323  H   0.82530
  324  H   0.81461
  325  H   0.82498
  326  H   0.82534
  327  H   0.81487
  328  H   0.82362
  329  H   0.81129
  330  H   0.81611
  331  H   0.82363
  332  H   0.82522
  333  H   0.81045
  334  H   0.82580
  335  H   0.81800
  336  H   0.82676
  337  H   0.84178
  338  H   0.82636
  339  H   0.84316
  340  H   0.82724
  341  H   0.83949
  342  H   0.82402
  343  H   0.83486
  344  H   0.82869
  345  H   0.82620
  346  H   0.82237
  347  H   0.84650
  348  H   0.82393
  349  H   0.83295
  350  H   0.83819
  351  H   0.82262
  352  H   0.84098
  353  H   0.82251
  354  H   0.81912
  355  H   0.84838
  356  H   0.84318
  357  H   0.82131
  358  H   0.84504
  359  H   0.82708
  360  H   0.84644

 **********************
 *                    *
 * JOB ENDED NORMALLY *
 *                    *
 **********************



 TOTAL JOB TIME:          1895.71 SECONDS

 == MOPAC DONE ==
