 *******************************************************************************
 **                                                                           **
 **                              MOPAC v22.1.0                                **
 **                                                                           **
 *******************************************************************************
 **          Digital Object Identifier (DOI): 10.5281/zenodo.6511958          **
 **    Visit the DOI location for information on how to cite this program.    **
 *******************************************************************************

                              PM7 CALCULATION RESULTS

 *******************************************************************************
 *  CALCULATION DONE:                                Wed Jan 31 15:04:58 2024  *
 *  PM7        - The PM7 Hamiltonian to be used
 *  NOOPT      - DO NOT OPTIMIZE ANY COORDINATES
 *
 *
 *
 *                 CHARGE ON SYSTEM = 0
 *
 *
 *
 *  T=         - A TIME OF 172800.0 SECONDS REQUESTED
 *  DUMP=N     - RESTART FILE WRITTEN EVERY 7200.0 SECONDS REQUESTED
 *******************************************************************************
PM7 CHARGE=0 NOOPT


   ATOM   CHEMICAL          X               Y               Z
  NUMBER   SYMBOL      (ANGSTROMS)     (ANGSTROMS)     (ANGSTROMS)

     1       N         16.16300500     17.81420700     20.72908400   
     2       N         11.79670700     22.18050500      9.35841600   
     3       N          3.34091600      4.12800500     18.29079300   
     4       N         18.29079300      3.34091600      4.12800500   
     5       N         20.72908400     16.16300500     17.81420700   
     6       N         17.81420700     20.72908400     16.16300500   
     7       N          4.12800500     18.29079300      3.34091600   
     8       N         23.83170700     13.92449500     14.71158400   
     9       N          1.88949500     21.39341600      0.23829300   
    10       N          0.23829300      1.88949500     21.39341600   
    11       N         21.39341600      0.23829300      1.88949500   
    12       N         13.92449500     14.71158400     23.83170700   
    13       N         14.71158400     23.83170700     13.92449500   
    14       N          6.25579300      8.69408400     19.94199500   
    15       N          7.90699500      5.77920700     15.37591600   
    16       N         19.94199500      6.25579300      8.69408400   
    17       N         15.37591600      7.90699500      5.77920700   
    18       N          8.69408400     19.94199500      6.25579300   
    19       N          5.77920700     15.37591600      7.90699500   
    20       N         22.18050500      9.35841600     11.79670700   
    21       N          2.67658400     12.27329300     10.14550500   
    22       N         12.27329300     10.14550500      2.67658400   
    23       N          9.35841600     11.79670700     22.18050500   
    24       N         10.14550500      2.67658400     12.27329300   
    25       C         17.76606700     14.46125600     21.22974000   
    26       C          8.44375600     23.78356700      8.85776000   
    27       C          2.84026000      5.73106700     21.64374400   
    28       C         21.64374400      2.84026000      5.73106700   
    29       C         21.22974000     17.76606700     14.46125600   
    30       C         14.46125600     21.22974000     17.76606700   
    31       C          5.73106700     21.64374400      2.84026000   
    32       C         20.47875600     12.32143300     15.21224000   
    33       C          0.28643300     20.89276000      3.59124400   
    34       C          3.59124400      0.28643300     20.89276000   
    35       C         20.89276000      3.59124400      0.28643300   
    36       C         12.32143300     15.21224000     20.47875600   
    37       C         15.21224000     20.47875600     12.32143300   
    38       C          9.60874400      9.19474000     18.33893300   
    39       C          6.30393300      2.42625600     14.87526000   
    40       C         18.33893300      9.60874400      9.19474000   
    41       C         14.87526000      6.30393300      2.42625600   
    42       C          9.19474000     18.33893300      9.60874400   
    43       C          2.42625600     14.87526000      6.30393300   
    44       C         23.78356700      8.85776000      8.44375600   
    45       C          3.17724000     15.62624400     11.74856700   
    46       C         15.62624400     11.74856700      3.17724000   
    47       C          8.85776000      8.44375600     23.78356700   
    48       C         11.74856700      3.17724000     15.62624400   
    49       C         18.94068300     14.63696700     20.42098800   
    50       C          8.61946700      0.88818300      9.66651200   
    51       C          3.64901200      6.90568300     21.46803300   
    52       C         21.46803300      3.64901200      6.90568300   
    53       C         20.42098800     18.94068300     14.63696700   
    54       C         14.63696700     20.42098800     18.94068300   
    55       C          6.90568300     21.46803300      3.64901200   
    56       C         20.65446700     11.14681700     14.40348800   
    57       C         23.18181700     21.70151200      3.41553300   
    58       C          3.41553300     23.18181700     21.70151200   
    59       C         21.70151200      3.41553300     23.18181700   
    60       C         11.14681700     14.40348800     20.65446700   
    61       C         14.40348800     20.65446700     11.14681700   
    62       C          9.43303300      8.38598800     17.16431700   
    63       C          5.12931700      2.60196700     15.68401200   
    64       C         17.16431700      9.43303300      8.38598800   
    65       C         15.68401200      5.12931700      2.60196700   
    66       C          8.38598800     17.16431700      9.43303300   
    67       C          2.60196700     15.68401200      5.12931700   
    68       C          0.88818300      9.66651200      8.61946700   
    69       C          2.36848800     15.45053300     12.92318300   
    70       C         15.45053300     12.92318300      2.36848800   
    71       C          9.66651200      8.61946700      0.88818300   
    72       C         12.92318300      2.36848800     15.45053300   
    73       C         14.79342200     17.30392300     20.81332900   
    74       C         11.28642300     20.81092200      9.27417100   
    75       C          3.25667100      2.75842200     18.80107700   
    76       C         18.80107700      3.25667100      2.75842200   
    77       C         20.81332900     14.79342200     17.30392300   
    78       C         17.30392300     20.81332900     14.79342200   
    79       C          2.75842200     18.80107700      3.25667100   
    80       C         23.32142300     15.29407800     14.79582900   
    81       C          3.25907800     21.30917100      0.74857700   
    82       C          0.74857700      3.25907800     21.30917100   
    83       C         21.30917100      0.74857700      3.25907800   
    84       C         15.29407800     14.79582900     23.32142300   
    85       C         14.79582900     23.32142300     15.29407800   
    86       C          6.76607700      8.77832900     21.31157800   
    87       C          9.27657800      5.26892300     15.29167100   
    88       C         21.31157800      6.76607700      8.77832900   
    89       C         15.29167100      9.27657800      5.26892300   
    90       C          8.77832900     21.31157800      6.76607700   
    91       C          5.26892300     15.29167100      9.27657800   
    92       C         20.81092200      9.27417100     11.28642300   
    93       C          2.76082900     12.78357700      8.77592200   
    94       C         12.78357700      8.77592200      2.76082900   
    95       C          9.27417100     11.28642300     20.81092200   
    96       C          8.77592200      2.76082900     12.78357700   
    97       C         15.55884800     15.38313700     22.14199300   
    98       C          9.36563700     21.57634800      7.94550700   
    99       C          1.92800700      3.52384800     20.72186300   
   100       C         20.72186300      1.92800700      3.52384800   
   101       C         22.14199300     15.55884800     15.38313700   
   102       C         15.38313700     22.14199300     15.55884800   
   103       C          3.52384800     20.72186300      1.92800700   
   104       C         21.40063700     14.52865200     16.12449300   
   105       C          2.49365200     19.98050700      2.66936300   
   106       C          2.66936300      2.49365200     19.98050700   
   107       C         19.98050700      2.66936300      2.49365200   
   108       C         14.52865200     16.12449300     21.40063700   
   109       C         16.12449300     21.40063700     14.52865200   
   110       C          8.68686300     10.10699300     20.54615200   
   111       C          8.51115200      3.34813700     13.96300700   
   112       C         20.54615200      8.68686300     10.10699300   
   113       C         13.96300700      8.51115200      3.34813700   
   114       C         10.10699300     20.54615200      8.68686300   
   115       C          3.34813700     13.96300700      8.51115200   
   116       C         21.57634800      7.94550700      9.36563700   
   117       C          4.08949300     14.70436300      9.54134800   
   118       C         14.70436300      9.54134800      4.08949300   
   119       C          7.94550700      9.36563700     21.57634800   
   120       C          9.54134800      4.08949300     14.70436300   
   121       C         19.21748800     19.98050700     17.98510400   
   122       C         13.96300700      1.16498800     12.10239600   
   123       C          6.08489600      7.18248800     16.12449300   
   124       C         16.12449300      6.08489600      7.18248800   
   125       C         17.98510400     19.21748800     19.98050700   
   126       C         19.98050700     17.98510400     19.21748800   
   127       C          7.18248800     16.12449300      6.08489600   
   128       C          1.92800700     10.87001200     11.96760400   
   129       C         22.90501200      0.06739600     22.14199300   
   130       C         22.14199300     22.90501200      0.06739600   
   131       C          0.06739600     22.14199300     22.90501200   
   132       C         10.87001200     11.96760400      1.92800700   
   133       C         11.96760400      1.92800700     10.87001200   
   134       C          4.08949300      5.95010400     16.88751200   
   135       C          4.85251200      7.94550700     18.11989600   
   136       C         16.88751200      4.08949300      5.95010400   
   137       C         18.11989600      4.85251200      7.94550700   
   138       C          5.95010400     16.88751200      4.08949300   
   139       C          7.94550700     18.11989600      4.85251200   
   140       C          1.16498800     12.10239600     13.96300700   
   141       C         24.00260400     10.10699300     13.19998800   
   142       C         10.10699300     13.19998800     24.00260400   
   143       C         12.10239600     13.96300700      1.16498800   
   144       C         13.19998800     24.00260400     10.10699300   
   145       C         18.45687600     16.94528000     20.56300100   
   146       C         10.92778000      0.40437600      9.52449900   
   147       C          3.50699900      6.42187600     19.15972000   
   148       C         19.15972000      3.50699900      6.42187600   
   149       C         20.56300100     18.45687600     16.94528000   
   150       C         16.94528000     20.56300100     18.45687600   
   151       C          6.42187600     19.15972000      3.50699900   
   152       C         22.96278000     11.63062400     14.54550100   
   153       C         23.66562400     21.55949900      1.10722000   
   154       C          1.10722000     23.66562400     21.55949900   
   155       C         21.55949900      1.10722000     23.66562400   
   156       C         11.63062400     14.54550100     22.96278000   
   157       C         14.54550100     22.96278000     11.63062400   
   158       C          7.12472000      8.52800100     17.64812400   
   159       C          5.61312400      4.91028000     15.54199900   
   160       C         17.64812400      7.12472000      8.52800100   
   161       C         15.54199900      5.61312400      4.91028000   
   162       C          8.52800100     17.64812400      7.12472000   
   163       C          4.91028000     15.54199900      5.61312400   
   164       C          0.40437600      9.52449900     10.92778000   
   165       C          2.51050100     13.14222000     12.43937600   
   166       C         13.14222000     12.43937600      2.51050100   
   167       C          9.52449900     10.92778000      0.40437600   
   168       C         12.43937600      2.51050100     13.14222000   
   169       C         16.54812500     19.02011400     20.18991600   
   170       C         13.00261400     22.56562500      9.89758400   
   171       C          3.88008400      4.51312500     17.08488600   
   172       C         17.08488600      3.88008400      4.51312500   
   173       C         20.18991600     16.54812500     19.02011400   
   174       C         19.02011400     20.18991600     16.54812500   
   175       C          4.51312500     17.08488600      3.88008400   
   176       C          0.96761400     13.53937500     14.17241600   
   177       C          1.50437500     21.93258400     23.10238600   
   178       C         23.10238600      1.50437500     21.93258400   
   179       C         21.93258400     23.10238600      1.50437500   
   180       C         13.53937500     14.17241600      0.96761400   
   181       C         14.17241600      0.96761400     13.53937500   
   182       C          5.04988600      8.15491600     19.55687500   
   183       C          7.52187500      6.98511400     15.91508400   
   184       C         19.55687500      5.04988600      8.15491600   
   185       C         15.91508400      7.52187500      6.98511400   
   186       C          8.15491600     19.55687500      5.04988600   
   187       C          6.98511400     15.91508400      7.52187500   
   188       C         22.56562500      9.89758400     13.00261400   
   189       C          2.13741600     11.06738600     10.53062500   
   190       C         11.06738600     10.53062500      2.13741600   
   191       C          9.89758400     13.00261400     22.56562500   
   192       C         10.53062500      2.13741600     11.06738600   
   193       C         23.22514300     21.99035200     23.90873100   
   194       C         15.97285200      5.17264300      6.17876900   
   195       C          0.16126900     11.19014300     14.11464800   
   196       C         14.11464800      0.16126900     11.19014300   
   197       C         23.90873100     23.22514300     21.99035200   
   198       C         21.99035200     23.90873100     23.22514300   
   199       C         11.19014300     14.11464800      0.16126900   
   200       C          3.93785200      6.86235700     17.89123100   
   201       C         18.89735700     18.21376900     20.13214800   
   202       C         20.13214800     18.89735700     18.21376900   
   203       C         18.21376900     20.13214800     18.89735700   
   204       C          6.86235700     17.89123100      3.93785200   
   205       C         17.89123100      3.93785200      6.86235700   
   206       C          2.07964800     11.87373100     12.87985700   
   207       C          0.84485700      9.95535200     12.19626900   
   208       C         12.87985700      2.07964800     11.87373100   
   209       C         12.19626900      0.84485700      9.95535200   
   210       C         11.87373100     12.87985700      2.07964800   
   211       C          9.95535200     12.19626900      0.84485700   
   212       C          5.17264300      6.17876900     15.97285200   
   213       C          5.85623100      8.09714800     17.20764300   
   214       C          8.09714800     17.20764300      5.85623100   
   215       C          6.17876900     15.97285200      5.17264300   
   216       C         17.20764300      5.85623100      8.09714800   
   217       C         17.16672400     16.79123200     21.00829600   
   218       C         10.77373200     23.18422400      9.07920400   
   219       C          3.06170400      5.13172400     19.31376800   
   220       C         19.31376800      3.06170400      5.13172400   
   221       C         21.00829600     17.16672400     16.79123200   
   222       C         16.79123200     21.00829600     17.16672400   
   223       C          5.13172400     19.31376800      3.06170400   
   224       C         22.80873200     12.92077600     14.99079600   
   225       C          0.88577600     21.11420400      1.26126800   
   226       C          1.26126800      0.88577600     21.11420400   
   227       C         21.11420400      1.26126800      0.88577600   
   228       C         12.92077600     14.99079600     22.80873200   
   229       C         14.99079600     22.80873200     12.92077600   
   230       C          7.27876800      8.97329600     18.93827600   
   231       C          6.90327600      4.75623200     15.09670400   
   232       C         18.93827600      7.27876800      8.97329600   
   233       C         15.09670400      6.90327600      4.75623200   
   234       C          8.97329600     18.93827600      7.27876800   
   235       C          4.75623200     15.09670400      6.90327600   
   236       C         23.18422400      9.07920400     10.77373200   
   237       C          2.95579600     13.29626800     11.14922400   
   238       C         13.29626800     11.14922400      2.95579600   
   239       C          9.07920400     10.77373200     23.18422400   
   240       C         11.14922400      2.95579600     13.29626800   
   241       C         19.29932600     15.89101400     20.03346100   
   242       C          9.87351400      1.24682600     10.05403900   
   243       C          4.03653900      7.26432600     20.21398600   
   244       C         20.21398600      4.03653900      7.26432600   
   245       C         20.03346100     19.29932600     15.89101400   
   246       C         15.89101400     20.03346100     19.29932600   
   247       C          7.26432600     20.21398600      4.03653900   
   248       C         21.90851400     10.78817400     14.01596100   
   249       C         22.82317400     22.08903900      2.16148600   
   250       C          2.16148600     22.82317400     22.08903900   
   251       C         22.08903900      2.16148600     22.82317400   
   252       C         10.78817400     14.01596100     21.90851400   
   253       C         14.01596100     21.90851400     10.78817400   
   254       C          8.17898600      7.99846100     16.80567400   
   255       C          4.77067400      3.85601400     16.07153900   
   256       C         16.80567400      8.17898600      7.99846100   
   257       C         16.07153900      4.77067400      3.85601400   
   258       C          7.99846100     16.80567400      8.17898600   
   259       C          3.85601400     16.07153900      4.77067400   
   260       C          1.24682600     10.05403900      9.87351400   
   261       C          1.98096100     14.19648600     13.28182600   
   262       C         14.19648600     13.28182600      1.98096100   
   263       C         10.05403900      9.87351400      1.24682600   
   264       C         13.28182600      1.98096100     14.19648600   
   265       C         16.88029100     15.47701000     21.48728900   
   266       C          9.45951000     22.89779100      8.60021100   
   267       C          2.58271100      4.84529100     20.62799000   
   268       C         20.62799000      2.58271100      4.84529100   
   269       C         21.48728900     16.88029100     15.47701000   
   270       C         15.47701000     21.48728900     16.88029100   
   271       C          4.84529100     20.62799000      2.58271100   
   272       C         21.49451000     13.20720900     15.46978900   
   273       C          1.17220900     20.63521100      2.57549000   
   274       C          2.57549000      1.17220900     20.63521100   
   275       C         20.63521100      2.57549000      1.17220900   
   276       C         13.20720900     15.46978900     21.49451000   
   277       C         15.46978900     21.49451000     13.20720900   
   278       C          8.59299000      9.45228900     19.22470900   
   279       C          7.18970900      3.44201000     14.61771100   
   280       C         19.22470900      8.59299000      9.45228900   
   281       C         14.61771100      7.18970900      3.44201000   
   282       C          9.45228900     19.22470900      8.59299000   
   283       C          3.44201000     14.61771100      7.18970900   
   284       C         22.89779100      8.60021100      9.45951000   
   285       C          3.43478900     14.61049000     10.86279100   
   286       C         14.61049000     10.86279100      3.43478900   
   287       C          8.60021100      9.45951000     22.89779100   
   288       C         10.86279100      3.43478900     14.61049000   
   289       H         13.45031600     21.59801100     17.55184400   
   290       H         15.58051100     19.46781600     12.53565600   
   291       H          6.51815600      1.41531600     14.50698900   
   292       H         14.50698900      6.51815600      1.41531600   
   293       H         17.55184400     13.45031600     21.59801100   
   294       H         21.59801100     17.55184400     13.45031600   
   295       H          1.41531600     14.50698900      6.51815600   
   296       H          3.54551100     16.63718400     11.53434400   
   297       H          4.60218400      0.50065600     20.52448900   
   298       H         20.52448900      4.60218400      0.50065600   
   299       H          0.50065600     20.52448900      4.60218400   
   300       H         16.63718400     11.53434400      3.54551100   
   301       H         11.53434400      3.54551100     16.63718400   
   302       H          2.47198900      5.51684400     22.65468400   
   303       H         10.61968400      9.56301100     18.55315600   
   304       H         22.65468400      2.47198900      5.51684400   
   305       H         18.55315600     10.61968400      9.56301100   
   306       H          5.51684400     22.65468400      2.47198900   
   307       H          9.56301100     18.55315600     10.61968400   
   308       H         19.46781600     12.53565600     15.58051100   
   309       H         23.56934400      8.48948900      7.43281600   
   310       H          8.48948900      7.43281600     23.56934400   
   311       H         12.53565600     15.58051100     19.46781600   
   312       H          7.43281600     23.56934400      8.48948900   
   313       H         13.74878400     20.12733400     19.49910700   
   314       H         14.10983400     19.76628400     10.58839300   
   315       H          4.57089300      1.71378400     15.97766600   
   316       H         15.97766600      4.57089300      1.71378400   
   317       H         19.49910700     13.74878400     20.12733400   
   318       H         20.12733400     19.49910700     13.74878400   
   319       H          1.71378400     15.97766600      4.57089300   
   320       H          2.07483400     16.33871600     13.48160700   
   321       H          4.30371600     22.62339300     21.99516600   
   322       H         21.99516600      4.30371600     22.62339300   
   323       H         22.62339300     21.99516600      4.30371600   
   324       H         16.33871600     13.48160700      2.07483400   
   325       H         13.48160700      2.07483400     16.33871600   
   326       H          3.94266600      7.46410700     22.35621600   
   327       H         10.32121600      8.09233400     16.60589300   
   328       H         22.35621600      3.94266600      7.46410700   
   329       H         16.60589300     10.32121600      8.09233400   
   330       H          7.46410700     22.35621600      3.94266600   
   331       H          8.09233400     16.60589300     10.32121600   
   332       H         19.76628400     10.58839300     14.10983400   
   333       H          1.44660700      9.96016600      7.73128400   
   334       H          9.96016600      7.73128400      1.44660700   
   335       H         10.58839300     14.10983400     19.76628400   
   336       H          7.73128400      1.44660700      9.96016600   
   337       H         14.00392600     17.89845200     20.33674300   
   338       H         11.88095200     20.02142600      9.75075700   
   339       H          3.73325700      1.96892600     18.20654800   
   340       H         18.20654800      3.73325700      1.96892600   
   341       H         20.33674300     14.00392600     17.89845200   
   342       H         17.89845200     20.33674300     14.00392600   
   343       H          1.96892600     18.20654800      3.73325700   
   344       H         23.91595200     16.08357400     14.31924300   
   345       H          4.04857400     21.78575700      0.15404800   
   346       H          0.15404800      4.04857400     21.78575700   
   347       H         21.78575700      0.15404800      4.04857400   
   348       H         16.08357400     14.31924300     23.91595200   
   349       H         14.31924300     23.91595200     16.08357400   
   350       H          6.17154800      8.30174300     22.10107400   
   351       H         10.06607400      5.86345200     15.76825700   
   352       H         22.10107400      6.17154800      8.30174300   
   353       H         15.76825700     10.06607400      5.86345200   
   354       H          8.30174300     22.10107400      6.17154800   
   355       H          5.86345200     15.76825700     10.06607400   
   356       H         20.02142600      9.75075700     11.88095200   
   357       H          2.28424300     12.18904800      7.98642600   
   358       H         12.18904800      7.98642600      2.28424300   
   359       H          9.75075700     11.88095200     20.02142600   
   360       H          7.98642600      2.28424300     12.18904800   
   361      Tv         24.07000000      0.00000000      0.00000000   
   362      Tv          0.00000000     24.07000000      0.00000000   
   363      Tv          0.00000000      0.00000000     24.07000000   


                   THE SYSTEM IS A SOLID


                UNIT CELL TRANSLATION VECTORS

              X                Y              Z
    T1 =    24.0700000      0.0000000      0.0000000
    T2 =     0.0000000     24.0700000      0.0000000
    T3 =     0.0000000      0.0000000     24.0700000


          CARTESIAN COORDINATES 

    NO.       ATOM           X           Y           Z

     1         N         16.1630     17.8142     20.7291
     2         N         11.7967     22.1805      9.3584
     3         N          3.3409      4.1280     18.2908
     4         N         18.2908      3.3409      4.1280
     5         N         20.7291     16.1630     17.8142
     6         N         17.8142     20.7291     16.1630
     7         N          4.1280     18.2908      3.3409
     8         N         23.8317     13.9245     14.7116
     9         N          1.8895     21.3934      0.2383
    10         N          0.2383      1.8895     21.3934
    11         N         21.3934      0.2383      1.8895
    12         N         13.9245     14.7116     23.8317
    13         N         14.7116     23.8317     13.9245
    14         N          6.2558      8.6941     19.9420
    15         N          7.9070      5.7792     15.3759
    16         N         19.9420      6.2558      8.6941
    17         N         15.3759      7.9070      5.7792
    18         N          8.6941     19.9420      6.2558
    19         N          5.7792     15.3759      7.9070
    20         N         22.1805      9.3584     11.7967
    21         N          2.6766     12.2733     10.1455
    22         N         12.2733     10.1455      2.6766
    23         N          9.3584     11.7967     22.1805
    24         N         10.1455      2.6766     12.2733
    25         C         17.7661     14.4613     21.2297
    26         C          8.4438     23.7836      8.8578
    27         C          2.8403      5.7311     21.6437
    28         C         21.6437      2.8403      5.7311
    29         C         21.2297     17.7661     14.4613
    30         C         14.4613     21.2297     17.7661
    31         C          5.7311     21.6437      2.8403
    32         C         20.4788     12.3214     15.2122
    33         C          0.2864     20.8928      3.5912
    34         C          3.5912      0.2864     20.8928
    35         C         20.8928      3.5912      0.2864
    36         C         12.3214     15.2122     20.4788
    37         C         15.2122     20.4788     12.3214
    38         C          9.6087      9.1947     18.3389
    39         C          6.3039      2.4263     14.8753
    40         C         18.3389      9.6087      9.1947
    41         C         14.8753      6.3039      2.4263
    42         C          9.1947     18.3389      9.6087
    43         C          2.4263     14.8753      6.3039
    44         C         23.7836      8.8578      8.4438
    45         C          3.1772     15.6262     11.7486
    46         C         15.6262     11.7486      3.1772
    47         C          8.8578      8.4438     23.7836
    48         C         11.7486      3.1772     15.6262
    49         C         18.9407     14.6370     20.4210
    50         C          8.6195      0.8882      9.6665
    51         C          3.6490      6.9057     21.4680
    52         C         21.4680      3.6490      6.9057
    53         C         20.4210     18.9407     14.6370
    54         C         14.6370     20.4210     18.9407
    55         C          6.9057     21.4680      3.6490
    56         C         20.6545     11.1468     14.4035
    57         C         23.1818     21.7015      3.4155
    58         C          3.4155     23.1818     21.7015
    59         C         21.7015      3.4155     23.1818
    60         C         11.1468     14.4035     20.6545
    61         C         14.4035     20.6545     11.1468
    62         C          9.4330      8.3860     17.1643
    63         C          5.1293      2.6020     15.6840
    64         C         17.1643      9.4330      8.3860
    65         C         15.6840      5.1293      2.6020
    66         C          8.3860     17.1643      9.4330
    67         C          2.6020     15.6840      5.1293
    68         C          0.8882      9.6665      8.6195
    69         C          2.3685     15.4505     12.9232
    70         C         15.4505     12.9232      2.3685
    71         C          9.6665      8.6195      0.8882
    72         C         12.9232      2.3685     15.4505
    73         C         14.7934     17.3039     20.8133
    74         C         11.2864     20.8109      9.2742
    75         C          3.2567      2.7584     18.8011
    76         C         18.8011      3.2567      2.7584
    77         C         20.8133     14.7934     17.3039
    78         C         17.3039     20.8133     14.7934
    79         C          2.7584     18.8011      3.2567
    80         C         23.3214     15.2941     14.7958
    81         C          3.2591     21.3092      0.7486
    82         C          0.7486      3.2591     21.3092
    83         C         21.3092      0.7486      3.2591
    84         C         15.2941     14.7958     23.3214
    85         C         14.7958     23.3214     15.2941
    86         C          6.7661      8.7783     21.3116
    87         C          9.2766      5.2689     15.2917
    88         C         21.3116      6.7661      8.7783
    89         C         15.2917      9.2766      5.2689
    90         C          8.7783     21.3116      6.7661
    91         C          5.2689     15.2917      9.2766
    92         C         20.8109      9.2742     11.2864
    93         C          2.7608     12.7836      8.7759
    94         C         12.7836      8.7759      2.7608
    95         C          9.2742     11.2864     20.8109
    96         C          8.7759      2.7608     12.7836
    97         C         15.5588     15.3831     22.1420
    98         C          9.3656     21.5763      7.9455
    99         C          1.9280      3.5238     20.7219
   100         C         20.7219      1.9280      3.5238
   101         C         22.1420     15.5588     15.3831
   102         C         15.3831     22.1420     15.5588
   103         C          3.5238     20.7219      1.9280
   104         C         21.4006     14.5287     16.1245
   105         C          2.4937     19.9805      2.6694
   106         C          2.6694      2.4937     19.9805
   107         C         19.9805      2.6694      2.4937
   108         C         14.5287     16.1245     21.4006
   109         C         16.1245     21.4006     14.5287
   110         C          8.6869     10.1070     20.5462
   111         C          8.5112      3.3481     13.9630
   112         C         20.5462      8.6869     10.1070
   113         C         13.9630      8.5112      3.3481
   114         C         10.1070     20.5462      8.6869
   115         C          3.3481     13.9630      8.5112
   116         C         21.5763      7.9455      9.3656
   117         C          4.0895     14.7044      9.5413
   118         C         14.7044      9.5413      4.0895
   119         C          7.9455      9.3656     21.5763
   120         C          9.5413      4.0895     14.7044
   121         C         19.2175     19.9805     17.9851
   122         C         13.9630      1.1650     12.1024
   123         C          6.0849      7.1825     16.1245
   124         C         16.1245      6.0849      7.1825
   125         C         17.9851     19.2175     19.9805
   126         C         19.9805     17.9851     19.2175
   127         C          7.1825     16.1245      6.0849
   128         C          1.9280     10.8700     11.9676
   129         C         22.9050      0.0674     22.1420
   130         C         22.1420     22.9050      0.0674
   131         C          0.0674     22.1420     22.9050
   132         C         10.8700     11.9676      1.9280
   133         C         11.9676      1.9280     10.8700
   134         C          4.0895      5.9501     16.8875
   135         C          4.8525      7.9455     18.1199
   136         C         16.8875      4.0895      5.9501
   137         C         18.1199      4.8525      7.9455
   138         C          5.9501     16.8875      4.0895
   139         C          7.9455     18.1199      4.8525
   140         C          1.1650     12.1024     13.9630
   141         C         24.0026     10.1070     13.2000
   142         C         10.1070     13.2000     24.0026
   143         C         12.1024     13.9630      1.1650
   144         C         13.2000     24.0026     10.1070
   145         C         18.4569     16.9453     20.5630
   146         C         10.9278      0.4044      9.5245
   147         C          3.5070      6.4219     19.1597
   148         C         19.1597      3.5070      6.4219
   149         C         20.5630     18.4569     16.9453
   150         C         16.9453     20.5630     18.4569
   151         C          6.4219     19.1597      3.5070
   152         C         22.9628     11.6306     14.5455
   153         C         23.6656     21.5595      1.1072
   154         C          1.1072     23.6656     21.5595
   155         C         21.5595      1.1072     23.6656
   156         C         11.6306     14.5455     22.9628
   157         C         14.5455     22.9628     11.6306
   158         C          7.1247      8.5280     17.6481
   159         C          5.6131      4.9103     15.5420
   160         C         17.6481      7.1247      8.5280
   161         C         15.5420      5.6131      4.9103
   162         C          8.5280     17.6481      7.1247
   163         C          4.9103     15.5420      5.6131
   164         C          0.4044      9.5245     10.9278
   165         C          2.5105     13.1422     12.4394
   166         C         13.1422     12.4394      2.5105
   167         C          9.5245     10.9278      0.4044
   168         C         12.4394      2.5105     13.1422
   169         C         16.5481     19.0201     20.1899
   170         C         13.0026     22.5656      9.8976
   171         C          3.8801      4.5131     17.0849
   172         C         17.0849      3.8801      4.5131
   173         C         20.1899     16.5481     19.0201
   174         C         19.0201     20.1899     16.5481
   175         C          4.5131     17.0849      3.8801
   176         C          0.9676     13.5394     14.1724
   177         C          1.5044     21.9326     23.1024
   178         C         23.1024      1.5044     21.9326
   179         C         21.9326     23.1024      1.5044
   180         C         13.5394     14.1724      0.9676
   181         C         14.1724      0.9676     13.5394
   182         C          5.0499      8.1549     19.5569
   183         C          7.5219      6.9851     15.9151
   184         C         19.5569      5.0499      8.1549
   185         C         15.9151      7.5219      6.9851
   186         C          8.1549     19.5569      5.0499
   187         C          6.9851     15.9151      7.5219
   188         C         22.5656      9.8976     13.0026
   189         C          2.1374     11.0674     10.5306
   190         C         11.0674     10.5306      2.1374
   191         C          9.8976     13.0026     22.5656
   192         C         10.5306      2.1374     11.0674
   193         C         23.2251     21.9904     23.9087
   194         C         15.9729      5.1726      6.1788
   195         C          0.1613     11.1901     14.1146
   196         C         14.1146      0.1613     11.1901
   197         C         23.9087     23.2251     21.9904
   198         C         21.9904     23.9087     23.2251
   199         C         11.1901     14.1146      0.1613
   200         C          3.9379      6.8624     17.8912
   201         C         18.8974     18.2138     20.1321
   202         C         20.1321     18.8974     18.2138
   203         C         18.2138     20.1321     18.8974
   204         C          6.8624     17.8912      3.9379
   205         C         17.8912      3.9379      6.8624
   206         C          2.0796     11.8737     12.8799
   207         C          0.8449      9.9554     12.1963
   208         C         12.8799      2.0796     11.8737
   209         C         12.1963      0.8449      9.9554
   210         C         11.8737     12.8799      2.0796
   211         C          9.9554     12.1963      0.8449
   212         C          5.1726      6.1788     15.9729
   213         C          5.8562      8.0971     17.2076
   214         C          8.0971     17.2076      5.8562
   215         C          6.1788     15.9729      5.1726
   216         C         17.2076      5.8562      8.0971
   217         C         17.1667     16.7912     21.0083
   218         C         10.7737     23.1842      9.0792
   219         C          3.0617      5.1317     19.3138
   220         C         19.3138      3.0617      5.1317
   221         C         21.0083     17.1667     16.7912
   222         C         16.7912     21.0083     17.1667
   223         C          5.1317     19.3138      3.0617
   224         C         22.8087     12.9208     14.9908
   225         C          0.8858     21.1142      1.2613
   226         C          1.2613      0.8858     21.1142
   227         C         21.1142      1.2613      0.8858
   228         C         12.9208     14.9908     22.8087
   229         C         14.9908     22.8087     12.9208
   230         C          7.2788      8.9733     18.9383
   231         C          6.9033      4.7562     15.0967
   232         C         18.9383      7.2788      8.9733
   233         C         15.0967      6.9033      4.7562
   234         C          8.9733     18.9383      7.2788
   235         C          4.7562     15.0967      6.9033
   236         C         23.1842      9.0792     10.7737
   237         C          2.9558     13.2963     11.1492
   238         C         13.2963     11.1492      2.9558
   239         C          9.0792     10.7737     23.1842
   240         C         11.1492      2.9558     13.2963
   241         C         19.2993     15.8910     20.0335
   242         C          9.8735      1.2468     10.0540
   243         C          4.0365      7.2643     20.2140
   244         C         20.2140      4.0365      7.2643
   245         C         20.0335     19.2993     15.8910
   246         C         15.8910     20.0335     19.2993
   247         C          7.2643     20.2140      4.0365
   248         C         21.9085     10.7882     14.0160
   249         C         22.8232     22.0890      2.1615
   250         C          2.1615     22.8232     22.0890
   251         C         22.0890      2.1615     22.8232
   252         C         10.7882     14.0160     21.9085
   253         C         14.0160     21.9085     10.7882
   254         C          8.1790      7.9985     16.8057
   255         C          4.7707      3.8560     16.0715
   256         C         16.8057      8.1790      7.9985
   257         C         16.0715      4.7707      3.8560
   258         C          7.9985     16.8057      8.1790
   259         C          3.8560     16.0715      4.7707
   260         C          1.2468     10.0540      9.8735
   261         C          1.9810     14.1965     13.2818
   262         C         14.1965     13.2818      1.9810
   263         C         10.0540      9.8735      1.2468
   264         C         13.2818      1.9810     14.1965
   265         C         16.8803     15.4770     21.4873
   266         C          9.4595     22.8978      8.6002
   267         C          2.5827      4.8453     20.6280
   268         C         20.6280      2.5827      4.8453
   269         C         21.4873     16.8803     15.4770
   270         C         15.4770     21.4873     16.8803
   271         C          4.8453     20.6280      2.5827
   272         C         21.4945     13.2072     15.4698
   273         C          1.1722     20.6352      2.5755
   274         C          2.5755      1.1722     20.6352
   275         C         20.6352      2.5755      1.1722
   276         C         13.2072     15.4698     21.4945
   277         C         15.4698     21.4945     13.2072
   278         C          8.5930      9.4523     19.2247
   279         C          7.1897      3.4420     14.6177
   280         C         19.2247      8.5930      9.4523
   281         C         14.6177      7.1897      3.4420
   282         C          9.4523     19.2247      8.5930
   283         C          3.4420     14.6177      7.1897
   284         C         22.8978      8.6002      9.4595
   285         C          3.4348     14.6105     10.8628
   286         C         14.6105     10.8628      3.4348
   287         C          8.6002      9.4595     22.8978
   288         C         10.8628      3.4348     14.6105
   289         H         13.4503     21.5980     17.5518
   290         H         15.5805     19.4678     12.5357
   291         H          6.5182      1.4153     14.5070
   292         H         14.5070      6.5182      1.4153
   293         H         17.5518     13.4503     21.5980
   294         H         21.5980     17.5518     13.4503
   295         H          1.4153     14.5070      6.5182
   296         H          3.5455     16.6372     11.5343
   297         H          4.6022      0.5007     20.5245
   298         H         20.5245      4.6022      0.5007
   299         H          0.5007     20.5245      4.6022
   300         H         16.6372     11.5343      3.5455
   301         H         11.5343      3.5455     16.6372
   302         H          2.4720      5.5168     22.6547
   303         H         10.6197      9.5630     18.5532
   304         H         22.6547      2.4720      5.5168
   305         H         18.5532     10.6197      9.5630
   306         H          5.5168     22.6547      2.4720
   307         H          9.5630     18.5532     10.6197
   308         H         19.4678     12.5357     15.5805
   309         H         23.5693      8.4895      7.4328
   310         H          8.4895      7.4328     23.5693
   311         H         12.5357     15.5805     19.4678
   312         H          7.4328     23.5693      8.4895
   313         H         13.7488     20.1273     19.4991
   314         H         14.1098     19.7663     10.5884
   315         H          4.5709      1.7138     15.9777
   316         H         15.9777      4.5709      1.7138
   317         H         19.4991     13.7488     20.1273
   318         H         20.1273     19.4991     13.7488
   319         H          1.7138     15.9777      4.5709
   320         H          2.0748     16.3387     13.4816
   321         H          4.3037     22.6234     21.9952
   322         H         21.9952      4.3037     22.6234
   323         H         22.6234     21.9952      4.3037
   324         H         16.3387     13.4816      2.0748
   325         H         13.4816      2.0748     16.3387
   326         H          3.9427      7.4641     22.3562
   327         H         10.3212      8.0923     16.6059
   328         H         22.3562      3.9427      7.4641
   329         H         16.6059     10.3212      8.0923
   330         H          7.4641     22.3562      3.9427
   331         H          8.0923     16.6059     10.3212
   332         H         19.7663     10.5884     14.1098
   333         H          1.4466      9.9602      7.7313
   334         H          9.9602      7.7313      1.4466
   335         H         10.5884     14.1098     19.7663
   336         H          7.7313      1.4466      9.9602
   337         H         14.0039     17.8985     20.3367
   338         H         11.8810     20.0214      9.7508
   339         H          3.7333      1.9689     18.2065
   340         H         18.2065      3.7333      1.9689
   341         H         20.3367     14.0039     17.8985
   342         H         17.8985     20.3367     14.0039
   343         H          1.9689     18.2065      3.7333
   344         H         23.9160     16.0836     14.3192
   345         H          4.0486     21.7858      0.1540
   346         H          0.1540      4.0486     21.7858
   347         H         21.7858      0.1540      4.0486
   348         H         16.0836     14.3192     23.9160
   349         H         14.3192     23.9160     16.0836
   350         H          6.1715      8.3017     22.1011
   351         H         10.0661      5.8635     15.7683
   352         H         22.1011      6.1715      8.3017
   353         H         15.7683     10.0661      5.8635
   354         H          8.3017     22.1011      6.1715
   355         H          5.8635     15.7683     10.0661
   356         H         20.0214      9.7508     11.8810
   357         H          2.2842     12.1890      7.9864
   358         H         12.1890      7.9864      2.2842
   359         H          9.7508     11.8810     20.0214
   360         H          7.9864      2.2842     12.1890

 General Reference for PM7:
 "Optimization of Parameters for Semiempirical Methods VI: More Modifications to the 
 NDDO Approximations and Re-optimization of Parameters", J. J. P. Stewart, J. Mol. Mod., 1:32, 19 (2013)
 https://link.springer.com/article/10.1007/s00894-012-1667-x

           Empirical Formula: C264 H72 N24  =   360 atoms



      RHF CALCULATION, NO. OF DOUBLY OCCUPIED LEVELS = 624


 -------------------------------------------------------------------------------
 PM7 CHARGE=0 NOOPT




     NO PARAMETERS MARKED FOR OPTIMIZATION, SO 1SCF WAS USED  
     SCF FIELD WAS ACHIEVED                                   


                              PM7 CALCULATION
                                                       MOPAC v22.1.0 Linux
                                                       Wed Jan 31 15:15:40 2024




          FINAL HEAT OF FORMATION =       3201.90773 KCAL/MOL =   13396.78194 KJ/MOL
          H.o.F. per unit cell    =        133.41282 KCAL, for 24 unit cells, unit cell = C11 H3 N1



          IONIZATION POTENTIAL    =          6.264905 EV
          HOMO LUMO ENERGIES (EV) =         -6.265 -2.979
          NO. OF FILLED LEVELS    =        624
          MOLECULAR WEIGHT        =       3579.6336

                   THE SYSTEM IS A SOLID


                UNIT CELL TRANSLATION VECTORS

              X                Y              Z
    T1 =    24.0700000      0.0000000      0.0000000
    T2 =     0.0000000     24.0700000      0.0000000
    T3 =     0.0000000      0.0000000     24.0700000

          VOLUME OF UNIT CELL     =      13945.313 CUBIC ANGSTROMS

          DENSITY                 =          0.426 GRAMS/CC
                              A   =         24.070 ANGSTROMS
                              B   =         24.070 ANGSTROMS
                              C   =         24.070 ANGSTROMS
                            ALPHA =         90.000 DEGREES
                            BETA  =         90.000 DEGREES
                            GAMMA =         90.000 DEGREES



          SCF CALCULATIONS        =          1

          WALL-CLOCK TIME         =         10 MINUTES AND 42.664 SECONDS
          COMPUTATION TIME        =         10 MINUTES AND 42.649 SECONDS




   ATOM   CHEMICAL          X               Y               Z
  NUMBER   SYMBOL      (ANGSTROMS)     (ANGSTROMS)     (ANGSTROMS)

     1       N         16.16300500     17.81420700     20.72908400   
     2       N         11.79670700     22.18050500      9.35841600   
     3       N          3.34091600      4.12800500     18.29079300   
     4       N         18.29079300      3.34091600      4.12800500   
     5       N         20.72908400     16.16300500     17.81420700   
     6       N         17.81420700     20.72908400     16.16300500   
     7       N          4.12800500     18.29079300      3.34091600   
     8       N         23.83170700     13.92449500     14.71158400   
     9       N          1.88949500     21.39341600      0.23829300   
    10       N          0.23829300      1.88949500     21.39341600   
    11       N         21.39341600      0.23829300      1.88949500   
    12       N         13.92449500     14.71158400     23.83170700   
    13       N         14.71158400     23.83170700     13.92449500   
    14       N          6.25579300      8.69408400     19.94199500   
    15       N          7.90699500      5.77920700     15.37591600   
    16       N         19.94199500      6.25579300      8.69408400   
    17       N         15.37591600      7.90699500      5.77920700   
    18       N          8.69408400     19.94199500      6.25579300   
    19       N          5.77920700     15.37591600      7.90699500   
    20       N         22.18050500      9.35841600     11.79670700   
    21       N          2.67658400     12.27329300     10.14550500   
    22       N         12.27329300     10.14550500      2.67658400   
    23       N          9.35841600     11.79670700     22.18050500   
    24       N         10.14550500      2.67658400     12.27329300   
    25       C         17.76606700     14.46125600     21.22974000   
    26       C          8.44375600     23.78356700      8.85776000   
    27       C          2.84026000      5.73106700     21.64374400   
    28       C         21.64374400      2.84026000      5.73106700   
    29       C         21.22974000     17.76606700     14.46125600   
    30       C         14.46125600     21.22974000     17.76606700   
    31       C          5.73106700     21.64374400      2.84026000   
    32       C         20.47875600     12.32143300     15.21224000   
    33       C          0.28643300     20.89276000      3.59124400   
    34       C          3.59124400      0.28643300     20.89276000   
    35       C         20.89276000      3.59124400      0.28643300   
    36       C         12.32143300     15.21224000     20.47875600   
    37       C         15.21224000     20.47875600     12.32143300   
    38       C          9.60874400      9.19474000     18.33893300   
    39       C          6.30393300      2.42625600     14.87526000   
    40       C         18.33893300      9.60874400      9.19474000   
    41       C         14.87526000      6.30393300      2.42625600   
    42       C          9.19474000     18.33893300      9.60874400   
    43       C          2.42625600     14.87526000      6.30393300   
    44       C         23.78356700      8.85776000      8.44375600   
    45       C          3.17724000     15.62624400     11.74856700   
    46       C         15.62624400     11.74856700      3.17724000   
    47       C          8.85776000      8.44375600     23.78356700   
    48       C         11.74856700      3.17724000     15.62624400   
    49       C         18.94068300     14.63696700     20.42098800   
    50       C          8.61946700      0.88818300      9.66651200   
    51       C          3.64901200      6.90568300     21.46803300   
    52       C         21.46803300      3.64901200      6.90568300   
    53       C         20.42098800     18.94068300     14.63696700   
    54       C         14.63696700     20.42098800     18.94068300   
    55       C          6.90568300     21.46803300      3.64901200   
    56       C         20.65446700     11.14681700     14.40348800   
    57       C         23.18181700     21.70151200      3.41553300   
    58       C          3.41553300     23.18181700     21.70151200   
    59       C         21.70151200      3.41553300     23.18181700   
    60       C         11.14681700     14.40348800     20.65446700   
    61       C         14.40348800     20.65446700     11.14681700   
    62       C          9.43303300      8.38598800     17.16431700   
    63       C          5.12931700      2.60196700     15.68401200   
    64       C         17.16431700      9.43303300      8.38598800   
    65       C         15.68401200      5.12931700      2.60196700   
    66       C          8.38598800     17.16431700      9.43303300   
    67       C          2.60196700     15.68401200      5.12931700   
    68       C          0.88818300      9.66651200      8.61946700   
    69       C          2.36848800     15.45053300     12.92318300   
    70       C         15.45053300     12.92318300      2.36848800   
    71       C          9.66651200      8.61946700      0.88818300   
    72       C         12.92318300      2.36848800     15.45053300   
    73       C         14.79342200     17.30392300     20.81332900   
    74       C         11.28642300     20.81092200      9.27417100   
    75       C          3.25667100      2.75842200     18.80107700   
    76       C         18.80107700      3.25667100      2.75842200   
    77       C         20.81332900     14.79342200     17.30392300   
    78       C         17.30392300     20.81332900     14.79342200   
    79       C          2.75842200     18.80107700      3.25667100   
    80       C         23.32142300     15.29407800     14.79582900   
    81       C          3.25907800     21.30917100      0.74857700   
    82       C          0.74857700      3.25907800     21.30917100   
    83       C         21.30917100      0.74857700      3.25907800   
    84       C         15.29407800     14.79582900     23.32142300   
    85       C         14.79582900     23.32142300     15.29407800   
    86       C          6.76607700      8.77832900     21.31157800   
    87       C          9.27657800      5.26892300     15.29167100   
    88       C         21.31157800      6.76607700      8.77832900   
    89       C         15.29167100      9.27657800      5.26892300   
    90       C          8.77832900     21.31157800      6.76607700   
    91       C          5.26892300     15.29167100      9.27657800   
    92       C         20.81092200      9.27417100     11.28642300   
    93       C          2.76082900     12.78357700      8.77592200   
    94       C         12.78357700      8.77592200      2.76082900   
    95       C          9.27417100     11.28642300     20.81092200   
    96       C          8.77592200      2.76082900     12.78357700   
    97       C         15.55884800     15.38313700     22.14199300   
    98       C          9.36563700     21.57634800      7.94550700   
    99       C          1.92800700      3.52384800     20.72186300   
   100       C         20.72186300      1.92800700      3.52384800   
   101       C         22.14199300     15.55884800     15.38313700   
   102       C         15.38313700     22.14199300     15.55884800   
   103       C          3.52384800     20.72186300      1.92800700   
   104       C         21.40063700     14.52865200     16.12449300   
   105       C          2.49365200     19.98050700      2.66936300   
   106       C          2.66936300      2.49365200     19.98050700   
   107       C         19.98050700      2.66936300      2.49365200   
   108       C         14.52865200     16.12449300     21.40063700   
   109       C         16.12449300     21.40063700     14.52865200   
   110       C          8.68686300     10.10699300     20.54615200   
   111       C          8.51115200      3.34813700     13.96300700   
   112       C         20.54615200      8.68686300     10.10699300   
   113       C         13.96300700      8.51115200      3.34813700   
   114       C         10.10699300     20.54615200      8.68686300   
   115       C          3.34813700     13.96300700      8.51115200   
   116       C         21.57634800      7.94550700      9.36563700   
   117       C          4.08949300     14.70436300      9.54134800   
   118       C         14.70436300      9.54134800      4.08949300   
   119       C          7.94550700      9.36563700     21.57634800   
   120       C          9.54134800      4.08949300     14.70436300   
   121       C         19.21748800     19.98050700     17.98510400   
   122       C         13.96300700      1.16498800     12.10239600   
   123       C          6.08489600      7.18248800     16.12449300   
   124       C         16.12449300      6.08489600      7.18248800   
   125       C         17.98510400     19.21748800     19.98050700   
   126       C         19.98050700     17.98510400     19.21748800   
   127       C          7.18248800     16.12449300      6.08489600   
   128       C          1.92800700     10.87001200     11.96760400   
   129       C         22.90501200      0.06739600     22.14199300   
   130       C         22.14199300     22.90501200      0.06739600   
   131       C          0.06739600     22.14199300     22.90501200   
   132       C         10.87001200     11.96760400      1.92800700   
   133       C         11.96760400      1.92800700     10.87001200   
   134       C          4.08949300      5.95010400     16.88751200   
   135       C          4.85251200      7.94550700     18.11989600   
   136       C         16.88751200      4.08949300      5.95010400   
   137       C         18.11989600      4.85251200      7.94550700   
   138       C          5.95010400     16.88751200      4.08949300   
   139       C          7.94550700     18.11989600      4.85251200   
   140       C          1.16498800     12.10239600     13.96300700   
   141       C         24.00260400     10.10699300     13.19998800   
   142       C         10.10699300     13.19998800     24.00260400   
   143       C         12.10239600     13.96300700      1.16498800   
   144       C         13.19998800     24.00260400     10.10699300   
   145       C         18.45687600     16.94528000     20.56300100   
   146       C         10.92778000      0.40437600      9.52449900   
   147       C          3.50699900      6.42187600     19.15972000   
   148       C         19.15972000      3.50699900      6.42187600   
   149       C         20.56300100     18.45687600     16.94528000   
   150       C         16.94528000     20.56300100     18.45687600   
   151       C          6.42187600     19.15972000      3.50699900   
   152       C         22.96278000     11.63062400     14.54550100   
   153       C         23.66562400     21.55949900      1.10722000   
   154       C          1.10722000     23.66562400     21.55949900   
   155       C         21.55949900      1.10722000     23.66562400   
   156       C         11.63062400     14.54550100     22.96278000   
   157       C         14.54550100     22.96278000     11.63062400   
   158       C          7.12472000      8.52800100     17.64812400   
   159       C          5.61312400      4.91028000     15.54199900   
   160       C         17.64812400      7.12472000      8.52800100   
   161       C         15.54199900      5.61312400      4.91028000   
   162       C          8.52800100     17.64812400      7.12472000   
   163       C          4.91028000     15.54199900      5.61312400   
   164       C          0.40437600      9.52449900     10.92778000   
   165       C          2.51050100     13.14222000     12.43937600   
   166       C         13.14222000     12.43937600      2.51050100   
   167       C          9.52449900     10.92778000      0.40437600   
   168       C         12.43937600      2.51050100     13.14222000   
   169       C         16.54812500     19.02011400     20.18991600   
   170       C         13.00261400     22.56562500      9.89758400   
   171       C          3.88008400      4.51312500     17.08488600   
   172       C         17.08488600      3.88008400      4.51312500   
   173       C         20.18991600     16.54812500     19.02011400   
   174       C         19.02011400     20.18991600     16.54812500   
   175       C          4.51312500     17.08488600      3.88008400   
   176       C          0.96761400     13.53937500     14.17241600   
   177       C          1.50437500     21.93258400     23.10238600   
   178       C         23.10238600      1.50437500     21.93258400   
   179       C         21.93258400     23.10238600      1.50437500   
   180       C         13.53937500     14.17241600      0.96761400   
   181       C         14.17241600      0.96761400     13.53937500   
   182       C          5.04988600      8.15491600     19.55687500   
   183       C          7.52187500      6.98511400     15.91508400   
   184       C         19.55687500      5.04988600      8.15491600   
   185       C         15.91508400      7.52187500      6.98511400   
   186       C          8.15491600     19.55687500      5.04988600   
   187       C          6.98511400     15.91508400      7.52187500   
   188       C         22.56562500      9.89758400     13.00261400   
   189       C          2.13741600     11.06738600     10.53062500   
   190       C         11.06738600     10.53062500      2.13741600   
   191       C          9.89758400     13.00261400     22.56562500   
   192       C         10.53062500      2.13741600     11.06738600   
   193       C         23.22514300     21.99035200     23.90873100   
   194       C         15.97285200      5.17264300      6.17876900   
   195       C          0.16126900     11.19014300     14.11464800   
   196       C         14.11464800      0.16126900     11.19014300   
   197       C         23.90873100     23.22514300     21.99035200   
   198       C         21.99035200     23.90873100     23.22514300   
   199       C         11.19014300     14.11464800      0.16126900   
   200       C          3.93785200      6.86235700     17.89123100   
   201       C         18.89735700     18.21376900     20.13214800   
   202       C         20.13214800     18.89735700     18.21376900   
   203       C         18.21376900     20.13214800     18.89735700   
   204       C          6.86235700     17.89123100      3.93785200   
   205       C         17.89123100      3.93785200      6.86235700   
   206       C          2.07964800     11.87373100     12.87985700   
   207       C          0.84485700      9.95535200     12.19626900   
   208       C         12.87985700      2.07964800     11.87373100   
   209       C         12.19626900      0.84485700      9.95535200   
   210       C         11.87373100     12.87985700      2.07964800   
   211       C          9.95535200     12.19626900      0.84485700   
   212       C          5.17264300      6.17876900     15.97285200   
   213       C          5.85623100      8.09714800     17.20764300   
   214       C          8.09714800     17.20764300      5.85623100   
   215       C          6.17876900     15.97285200      5.17264300   
   216       C         17.20764300      5.85623100      8.09714800   
   217       C         17.16672400     16.79123200     21.00829600   
   218       C         10.77373200     23.18422400      9.07920400   
   219       C          3.06170400      5.13172400     19.31376800   
   220       C         19.31376800      3.06170400      5.13172400   
   221       C         21.00829600     17.16672400     16.79123200   
   222       C         16.79123200     21.00829600     17.16672400   
   223       C          5.13172400     19.31376800      3.06170400   
   224       C         22.80873200     12.92077600     14.99079600   
   225       C          0.88577600     21.11420400      1.26126800   
   226       C          1.26126800      0.88577600     21.11420400   
   227       C         21.11420400      1.26126800      0.88577600   
   228       C         12.92077600     14.99079600     22.80873200   
   229       C         14.99079600     22.80873200     12.92077600   
   230       C          7.27876800      8.97329600     18.93827600   
   231       C          6.90327600      4.75623200     15.09670400   
   232       C         18.93827600      7.27876800      8.97329600   
   233       C         15.09670400      6.90327600      4.75623200   
   234       C          8.97329600     18.93827600      7.27876800   
   235       C          4.75623200     15.09670400      6.90327600   
   236       C         23.18422400      9.07920400     10.77373200   
   237       C          2.95579600     13.29626800     11.14922400   
   238       C         13.29626800     11.14922400      2.95579600   
   239       C          9.07920400     10.77373200     23.18422400   
   240       C         11.14922400      2.95579600     13.29626800   
   241       C         19.29932600     15.89101400     20.03346100   
   242       C          9.87351400      1.24682600     10.05403900   
   243       C          4.03653900      7.26432600     20.21398600   
   244       C         20.21398600      4.03653900      7.26432600   
   245       C         20.03346100     19.29932600     15.89101400   
   246       C         15.89101400     20.03346100     19.29932600   
   247       C          7.26432600     20.21398600      4.03653900   
   248       C         21.90851400     10.78817400     14.01596100   
   249       C         22.82317400     22.08903900      2.16148600   
   250       C          2.16148600     22.82317400     22.08903900   
   251       C         22.08903900      2.16148600     22.82317400   
   252       C         10.78817400     14.01596100     21.90851400   
   253       C         14.01596100     21.90851400     10.78817400   
   254       C          8.17898600      7.99846100     16.80567400   
   255       C          4.77067400      3.85601400     16.07153900   
   256       C         16.80567400      8.17898600      7.99846100   
   257       C         16.07153900      4.77067400      3.85601400   
   258       C          7.99846100     16.80567400      8.17898600   
   259       C          3.85601400     16.07153900      4.77067400   
   260       C          1.24682600     10.05403900      9.87351400   
   261       C          1.98096100     14.19648600     13.28182600   
   262       C         14.19648600     13.28182600      1.98096100   
   263       C         10.05403900      9.87351400      1.24682600   
   264       C         13.28182600      1.98096100     14.19648600   
   265       C         16.88029100     15.47701000     21.48728900   
   266       C          9.45951000     22.89779100      8.60021100   
   267       C          2.58271100      4.84529100     20.62799000   
   268       C         20.62799000      2.58271100      4.84529100   
   269       C         21.48728900     16.88029100     15.47701000   
   270       C         15.47701000     21.48728900     16.88029100   
   271       C          4.84529100     20.62799000      2.58271100   
   272       C         21.49451000     13.20720900     15.46978900   
   273       C          1.17220900     20.63521100      2.57549000   
   274       C          2.57549000      1.17220900     20.63521100   
   275       C         20.63521100      2.57549000      1.17220900   
   276       C         13.20720900     15.46978900     21.49451000   
   277       C         15.46978900     21.49451000     13.20720900   
   278       C          8.59299000      9.45228900     19.22470900   
   279       C          7.18970900      3.44201000     14.61771100   
   280       C         19.22470900      8.59299000      9.45228900   
   281       C         14.61771100      7.18970900      3.44201000   
   282       C          9.45228900     19.22470900      8.59299000   
   283       C          3.44201000     14.61771100      7.18970900   
   284       C         22.89779100      8.60021100      9.45951000   
   285       C          3.43478900     14.61049000     10.86279100   
   286       C         14.61049000     10.86279100      3.43478900   
   287       C          8.60021100      9.45951000     22.89779100   
   288       C         10.86279100      3.43478900     14.61049000   
   289       H         13.45031600     21.59801100     17.55184400   
   290       H         15.58051100     19.46781600     12.53565600   
   291       H          6.51815600      1.41531600     14.50698900   
   292       H         14.50698900      6.51815600      1.41531600   
   293       H         17.55184400     13.45031600     21.59801100   
   294       H         21.59801100     17.55184400     13.45031600   
   295       H          1.41531600     14.50698900      6.51815600   
   296       H          3.54551100     16.63718400     11.53434400   
   297       H          4.60218400      0.50065600     20.52448900   
   298       H         20.52448900      4.60218400      0.50065600   
   299       H          0.50065600     20.52448900      4.60218400   
   300       H         16.63718400     11.53434400      3.54551100   
   301       H         11.53434400      3.54551100     16.63718400   
   302       H          2.47198900      5.51684400     22.65468400   
   303       H         10.61968400      9.56301100     18.55315600   
   304       H         22.65468400      2.47198900      5.51684400   
   305       H         18.55315600     10.61968400      9.56301100   
   306       H          5.51684400     22.65468400      2.47198900   
   307       H          9.56301100     18.55315600     10.61968400   
   308       H         19.46781600     12.53565600     15.58051100   
   309       H         23.56934400      8.48948900      7.43281600   
   310       H          8.48948900      7.43281600     23.56934400   
   311       H         12.53565600     15.58051100     19.46781600   
   312       H          7.43281600     23.56934400      8.48948900   
   313       H         13.74878400     20.12733400     19.49910700   
   314       H         14.10983400     19.76628400     10.58839300   
   315       H          4.57089300      1.71378400     15.97766600   
   316       H         15.97766600      4.57089300      1.71378400   
   317       H         19.49910700     13.74878400     20.12733400   
   318       H         20.12733400     19.49910700     13.74878400   
   319       H          1.71378400     15.97766600      4.57089300   
   320       H          2.07483400     16.33871600     13.48160700   
   321       H          4.30371600     22.62339300     21.99516600   
   322       H         21.99516600      4.30371600     22.62339300   
   323       H         22.62339300     21.99516600      4.30371600   
   324       H         16.33871600     13.48160700      2.07483400   
   325       H         13.48160700      2.07483400     16.33871600   
   326       H          3.94266600      7.46410700     22.35621600   
   327       H         10.32121600      8.09233400     16.60589300   
   328       H         22.35621600      3.94266600      7.46410700   
   329       H         16.60589300     10.32121600      8.09233400   
   330       H          7.46410700     22.35621600      3.94266600   
   331       H          8.09233400     16.60589300     10.32121600   
   332       H         19.76628400     10.58839300     14.10983400   
   333       H          1.44660700      9.96016600      7.73128400   
   334       H          9.96016600      7.73128400      1.44660700   
   335       H         10.58839300     14.10983400     19.76628400   
   336       H          7.73128400      1.44660700      9.96016600   
   337       H         14.00392600     17.89845200     20.33674300   
   338       H         11.88095200     20.02142600      9.75075700   
   339       H          3.73325700      1.96892600     18.20654800   
   340       H         18.20654800      3.73325700      1.96892600   
   341       H         20.33674300     14.00392600     17.89845200   
   342       H         17.89845200     20.33674300     14.00392600   
   343       H          1.96892600     18.20654800      3.73325700   
   344       H         23.91595200     16.08357400     14.31924300   
   345       H          4.04857400     21.78575700      0.15404800   
   346       H          0.15404800      4.04857400     21.78575700   
   347       H         21.78575700      0.15404800      4.04857400   
   348       H         16.08357400     14.31924300     23.91595200   
   349       H         14.31924300     23.91595200     16.08357400   
   350       H          6.17154800      8.30174300     22.10107400   
   351       H         10.06607400      5.86345200     15.76825700   
   352       H         22.10107400      6.17154800      8.30174300   
   353       H         15.76825700     10.06607400      5.86345200   
   354       H          8.30174300     22.10107400      6.17154800   
   355       H          5.86345200     15.76825700     10.06607400   
   356       H         20.02142600      9.75075700     11.88095200   
   357       H          2.28424300     12.18904800      7.98642600   
   358       H         12.18904800      7.98642600      2.28424300   
   359       H          9.75075700     11.88095200     20.02142600   
   360       H          7.98642600      2.28424300     12.18904800   
   361      Tv         24.07000000      0.00000000      0.00000000   
   362      Tv          0.00000000     24.07000000      0.00000000   
   363      Tv          0.00000000      0.00000000     24.07000000   

                             CARTESIAN COORDINATES

   1    N       16.163005000    17.814207000    20.729084000
   2    N       11.796707000    22.180505000     9.358416000
   3    N        3.340916000     4.128005000    18.290793000
   4    N       18.290793000     3.340916000     4.128005000
   5    N       20.729084000    16.163005000    17.814207000
   6    N       17.814207000    20.729084000    16.163005000
   7    N        4.128005000    18.290793000     3.340916000
   8    N       23.831707000    13.924495000    14.711584000
   9    N        1.889495000    21.393416000     0.238293000
  10    N        0.238293000     1.889495000    21.393416000
  11    N       21.393416000     0.238293000     1.889495000
  12    N       13.924495000    14.711584000    23.831707000
  13    N       14.711584000    23.831707000    13.924495000
  14    N        6.255793000     8.694084000    19.941995000
  15    N        7.906995000     5.779207000    15.375916000
  16    N       19.941995000     6.255793000     8.694084000
  17    N       15.375916000     7.906995000     5.779207000
  18    N        8.694084000    19.941995000     6.255793000
  19    N        5.779207000    15.375916000     7.906995000
  20    N       22.180505000     9.358416000    11.796707000
  21    N        2.676584000    12.273293000    10.145505000
  22    N       12.273293000    10.145505000     2.676584000
  23    N        9.358416000    11.796707000    22.180505000
  24    N       10.145505000     2.676584000    12.273293000
  25    C       17.766067000    14.461256000    21.229740000
  26    C        8.443756000    23.783567000     8.857760000
  27    C        2.840260000     5.731067000    21.643744000
  28    C       21.643744000     2.840260000     5.731067000
  29    C       21.229740000    17.766067000    14.461256000
  30    C       14.461256000    21.229740000    17.766067000
  31    C        5.731067000    21.643744000     2.840260000
  32    C       20.478756000    12.321433000    15.212240000
  33    C        0.286433000    20.892760000     3.591244000
  34    C        3.591244000     0.286433000    20.892760000
  35    C       20.892760000     3.591244000     0.286433000
  36    C       12.321433000    15.212240000    20.478756000
  37    C       15.212240000    20.478756000    12.321433000
  38    C        9.608744000     9.194740000    18.338933000
  39    C        6.303933000     2.426256000    14.875260000
  40    C       18.338933000     9.608744000     9.194740000
  41    C       14.875260000     6.303933000     2.426256000
  42    C        9.194740000    18.338933000     9.608744000
  43    C        2.426256000    14.875260000     6.303933000
  44    C       23.783567000     8.857760000     8.443756000
  45    C        3.177240000    15.626244000    11.748567000
  46    C       15.626244000    11.748567000     3.177240000
  47    C        8.857760000     8.443756000    23.783567000
  48    C       11.748567000     3.177240000    15.626244000
  49    C       18.940683000    14.636967000    20.420988000
  50    C        8.619467000     0.888183000     9.666512000
  51    C        3.649012000     6.905683000    21.468033000
  52    C       21.468033000     3.649012000     6.905683000
  53    C       20.420988000    18.940683000    14.636967000
  54    C       14.636967000    20.420988000    18.940683000
  55    C        6.905683000    21.468033000     3.649012000
  56    C       20.654467000    11.146817000    14.403488000
  57    C       23.181817000    21.701512000     3.415533000
  58    C        3.415533000    23.181817000    21.701512000
  59    C       21.701512000     3.415533000    23.181817000
  60    C       11.146817000    14.403488000    20.654467000
  61    C       14.403488000    20.654467000    11.146817000
  62    C        9.433033000     8.385988000    17.164317000
  63    C        5.129317000     2.601967000    15.684012000
  64    C       17.164317000     9.433033000     8.385988000
  65    C       15.684012000     5.129317000     2.601967000
  66    C        8.385988000    17.164317000     9.433033000
  67    C        2.601967000    15.684012000     5.129317000
  68    C        0.888183000     9.666512000     8.619467000
  69    C        2.368488000    15.450533000    12.923183000
  70    C       15.450533000    12.923183000     2.368488000
  71    C        9.666512000     8.619467000     0.888183000
  72    C       12.923183000     2.368488000    15.450533000
  73    C       14.793422000    17.303923000    20.813329000
[...]
  293          H           0.156435        0.8436     0.84357
  294          H           0.155390        0.8446     0.84461
  295          H           0.166622        0.8334     0.83338
  296          H           0.162207        0.8378     0.83779
  297          H           0.165561        0.8344     0.83444
  298          H           0.170646        0.8294     0.82935
  299          H           0.158928        0.8411     0.84107
  300          H           0.160510        0.8395     0.83949
  301          H           0.171541        0.8285     0.82846
  302          H           0.162122        0.8379     0.83788
  303          H           0.163896        0.8361     0.83610
  304          H           0.157573        0.8424     0.84243
  305          H           0.165389        0.8346     0.83461
  306          H           0.162353        0.8376     0.83765
  307          H           0.168981        0.8310     0.83102
  308          H           0.168965        0.8310     0.83103
  309          H           0.164768        0.8352     0.83523
  310          H           0.152075        0.8479     0.84792
  311          H           0.149234        0.8508     0.85077
  312          H           0.161107        0.8389     0.83889
  313          H           0.154152        0.8458     0.84585
  314          H           0.161457        0.8385     0.83854
  315          H           0.156985        0.8430     0.84301
  316          H           0.159767        0.8402     0.84023
  317          H           0.165110        0.8349     0.83489
  318          H           0.157436        0.8426     0.84256
  319          H           0.162734        0.8373     0.83727
  320          H           0.159970        0.8400     0.84003
  321          H           0.161969        0.8380     0.83803
  322          H           0.157640        0.8424     0.84236
  323          H           0.157906        0.8421     0.84209
  324          H           0.152967        0.8470     0.84703
  325          H           0.158710        0.8413     0.84129
  326          H           0.156917        0.8431     0.84308
  327          H           0.161172        0.8388     0.83883
  328          H           0.157135        0.8429     0.84286
  329          H           0.155588        0.8444     0.84441
  330          H           0.158153        0.8418     0.84185
  331          H           0.157408        0.8426     0.84259
  332          H           0.161090        0.8389     0.83891
  333          H           0.158615        0.8414     0.84138
  334          H           0.161207        0.8388     0.83879
  335          H           0.158852        0.8411     0.84115
  336          H           0.160872        0.8391     0.83913
  337          H           0.193430        0.8066     0.80657
  338          H           0.176448        0.8236     0.82355
  339          H           0.179964        0.8200     0.82004
  340          H           0.175882        0.8241     0.82412
  341          H           0.176103        0.8239     0.82390
  342          H           0.182274        0.8177     0.81773
  343          H           0.171431        0.8286     0.82857
  344          H           0.192486        0.8075     0.80751
  345          H           0.170119        0.8299     0.82988
  346          H           0.188569        0.8114     0.81143
  347          H           0.193381        0.8066     0.80662
  348          H           0.188926        0.8111     0.81107
  349          H           0.189407        0.8106     0.81059
  350          H           0.191148        0.8089     0.80885
  351          H           0.181490        0.8185     0.81851
  352          H           0.187466        0.8125     0.81253
  353          H           0.188348        0.8117     0.81165
  354          H           0.192454        0.8075     0.80755
  355          H           0.188802        0.8112     0.81120
  356          H           0.186380        0.8136     0.81362
  357          H           0.178371        0.8216     0.82163
  358          H           0.179660        0.8203     0.82034
  359          H           0.179178        0.8208     0.82082
  360          H           0.192088        0.8079     0.80791


          ATOMIC ORBITAL ELECTRON POPULATIONS

     Atom    s        px        py        pz   
    1  N   1.52392   1.11560   1.12199   1.36580
    2  N   1.51641   1.12822   1.08254   1.46888
    3  N   1.51592   1.43566   1.08336   1.12546
    4  N   1.51533   1.12470   1.43473   1.08419
    5  N   1.51464   1.43156   1.08349   1.12426
    6  N   1.51593   1.12417   1.41881   1.08503
    7  N   1.51967   1.08883   1.13059   1.54512
    8  N   1.51619   1.10318   1.11745   1.27181
    9  N   1.51889   1.08394   1.55024   1.13256
   10  N   1.51796   1.10606   1.11808   1.29952
   11  N   1.51540   1.26616   1.10409   1.11495
   12  N   1.52569   1.10960   1.40280   1.12975
   13  N   1.51795   1.28847   1.10412   1.12069
   14  N   1.51929   1.10957   1.30746   1.11806
   15  N   1.51314   1.09677   1.11131   1.33163
   16  N   1.51341   1.09569   1.11187   1.32239
   17  N   1.51881   1.30338   1.11897   1.10738
   18  N   1.51653   1.28192   1.11454   1.10713
   19  N   1.51812   1.10868   1.31182   1.11539
   20  N   1.51417   1.11207   1.27716   1.10226
   21  N   1.51651   1.46045   1.12771   1.08259
   22  N   1.51542   1.12597   1.08122   1.44862
   23  N   1.51810   1.47597   1.13423   1.08153
   24  N   1.51344   1.10952   1.26572   1.10275
   25  C   1.08970   0.96314   1.05273   0.94655
   26  C   1.07923   1.06393   0.98777   1.02086
   27  C   1.07485   1.05342   1.00094   1.06894
   28  C   1.07899   1.06093   1.01865   0.98835
   29  C   1.08152   0.99937   0.98074   1.05781
   30  C   1.07364   1.06887   1.05883   1.00314
   31  C   1.08103   0.98812   1.07086   1.02241
   32  C   1.07814   1.07622   1.00671   1.05367
   33  C   1.08025   0.98795   1.02143   1.06754
   34  C   1.08195   1.06944   0.99643   1.02414
   35  C   1.07450   1.08362   1.08141   1.01782
   36  C   1.08673   0.96407   0.94992   1.04678
   37  C   1.08344   1.00697   1.06645   0.98870
   38  C   1.08295   1.06765   1.01130   0.98982
   39  C   1.07874   0.99424   1.06253   1.02582
   40  C   1.07190   1.01592   1.07467   1.08317
   41  C   1.08337   1.00562   0.98876   1.06509
   42  C   1.07444   1.08301   1.01783   1.07983
   43  C   1.08135   1.07127   1.03184   0.99959
   44  C   1.07976   0.99662   1.02873   1.06764
   45  C   1.07685   1.04015   1.06739   0.99545
   46  C   1.07642   1.06774   0.99416   1.03996
   47  C   1.08805   0.95061   1.05142   0.96075
   48  C   1.07339   1.01784   1.08530   1.08033
   49  C   1.07248   1.04249   1.05741   1.07157
   50  C   1.07870   1.04127   1.01129   1.00899
   51  C   1.08139   0.97867   0.99529   1.03351
   52  C   1.07714   1.04434   1.02332   1.01746
   53  C   1.07519   1.04152   1.02677   1.04801
   54  C   1.08089   1.03135   0.97730   0.99445
   55  C   1.07935   1.00989   1.03575   1.00437
   56  C   1.08648   1.03951   0.98564   0.96595
   57  C   1.07757   1.01471   1.01286   1.03683
   58  C   1.08462   1.04623   0.99533   0.98626
   59  C   1.08989   0.93485   1.03239   0.96948
   60  C   1.06769   1.05194   1.08742   1.05332
   61  C   1.08062   1.01462   1.04845   1.01102
   62  C   1.08056   1.04742   1.01370   1.01109
   63  C   1.07928   1.01021   1.04588   1.01389
   64  C   1.08618   0.97677   1.03174   0.94824
   65  C   1.07902   1.02466   1.01620   1.04912
   66  C   1.08942   0.93674   0.97039   1.03292
   67  C   1.08663   1.04458   0.97192   0.98772
   68  C   1.08199   1.00303   1.00063   1.04512
   69  C   1.08072   0.98811   1.03655   1.00048
   70  C   1.07906   1.03392   1.00473   0.99622
   71  C   1.07071   1.08039   1.05476   1.04825
   72  C   1.08947   0.96910   0.93428   1.03185
   73  C   1.08015   0.85234   1.02945   1.14262
   74  C   1.09087   0.98745   0.85437   0.97830
   75  C   1.08896   1.00355   0.85705   0.99348
   76  C   1.08824   0.99152   0.99716   0.85665
   77  C   1.08851   0.99747   0.85683   0.99091
   78  C   1.08783   0.99691   1.01879   0.85834
   79  C   1.08255   0.84960   1.00076   1.06151
   80  C   1.06772   1.05247   0.85523   1.24443
   81  C   1.08629   0.85124   1.02062   0.99139
   82  C   1.06712   1.04749   0.85499   1.23587
   83  C   1.06847   1.24005   1.05095   0.85758
   84  C   1.08654   0.85655   1.07205   1.01438
   85  C   1.06562   1.24903   1.05107   0.85334
   86  C   1.07173   1.04597   1.21416   0.85408
   87  C   1.07681   0.85889   1.01727   1.10654
   88  C   1.07779   0.86011   1.02087   1.11699
   89  C   1.06734   1.23531   0.85475   1.04713
   90  C   1.07032   1.22360   0.85863   1.04637
   91  C   1.06938   1.04305   1.21870   0.85606
   92  C   1.06706   0.85650   1.21478   1.04372
   93  C   1.09054   0.98693   0.98950   0.85542
   94  C   1.08962   0.99190   0.85617   1.00027
   95  C   1.09351   0.96891   0.98300   0.85684
   96  C   1.06949   0.85770   1.21384   1.04541
   97  C   1.06536   0.98143   1.00568   0.96943
   98  C   1.07093   0.91368   0.96257   0.93101
   99  C   1.06985   0.93720   0.96558   0.92568
  100  C   1.07100   0.91072   0.92799   0.96294
  101  C   1.07120   0.92598   0.96325   0.90788
  102  C   1.07028   0.92554   0.93617   0.96563
  103  C   1.04699   0.97524   1.10347   1.00494
  104  C   1.03807   1.18907   0.98646   1.04244
  105  C   1.05238   0.97285   0.98645   1.05683
  106  C   1.04138   1.16719   0.98416   1.02889
  107  C   1.03873   1.04296   1.19003   0.98823
  108  C   1.06952   0.97761   0.94749   0.95283
  109  C   1.04374   1.02078   1.15119   0.98180
  110  C   1.04179   1.16599   1.03475   0.98836
  111  C   1.06424   0.96781   0.97165   0.94948
  112  C   1.06106   0.97014   1.00141   0.96594
  113  C   1.04116   1.02700   0.98411   1.16620
  114  C   1.04033   1.03987   0.99171   1.18338
  115  C   1.04047   1.17451   1.03362   0.98622
  116  C   1.05113   0.97437   0.99396   1.08320
  117  C   1.06943   0.93817   0.92666   0.96578
  118  C   1.07020   0.92336   0.96365   0.93546
  119  C   1.07136   0.92711   0.90851   0.96478
  120  C   1.04657   0.97772   1.01433   1.11945
  121  C   1.06449   0.95132   0.94037   0.93829
  122  C   1.06502   0.99192   0.99274   0.93798
  123  C   1.06993   0.94457   0.94664   0.93064
  124  C   1.06440   0.99567   0.93467   0.99633
  125  C   1.06076   0.93222   1.01088   1.02074
  126  C   1.07119   0.91955   0.94982   0.93710
  127  C   1.06615   0.99504   0.99128   0.93539
  128  C   1.06491   0.94020   0.94597   0.94537
  129  C   1.06581   0.99614   0.93718   0.99330
  130  C   1.05850   1.01340   0.99736   0.92801
  131  C   1.05754   0.95565   0.99944   0.97877
  132  C   1.06722   0.95311   0.94592   0.93798
  133  C   1.06509   0.93055   0.95817   0.96909
  134  C   1.06501   0.93513   0.94042   0.94530
  135  C   1.06344   0.99798   0.99751   0.93065
  136  C   1.06934   0.93668   0.92322   0.94841
  137  C   1.06592   0.93275   0.95256   0.93735
  138  C   1.05363   0.95653   1.00064   1.03068
  139  C   1.05296   1.04792   0.92818   1.01128
  140  C   1.06422   0.98686   0.92975   0.98173
  141  C   1.06773   0.94151   0.95943   0.96891
  142  C   1.06855   0.95216   0.95777   0.95118
  143  C   1.05483   0.93341   1.04322   1.01727
  144  C   1.06705   0.94131   0.94934   0.93366
  145  C   1.05871   0.98679   1.01079   1.06303
  146  C   1.06063   0.99078   0.96821   0.98322
  147  C   1.06430   0.93763   0.95684   0.98688
  148  C   1.05952   0.99397   1.00023   0.96868
  149  C   1.05691   1.03596   0.97717   0.99741
  150  C   1.06514   0.98654   0.92783   0.95375
  151  C   1.05939   0.98242   0.99156   0.99779
  152  C   1.06232   0.99559   0.96872   0.98707
  153  C   1.06030   0.97784   0.98592   0.98914
  154  C   1.05594   1.00605   0.98225   1.06673
  155  C   1.06136   0.96356   0.98907   0.96042
  156  C   1.05983   0.97844   1.03962   1.00711
  157  C   1.05940   1.04568   1.00495   0.97989
  158  C   1.06109   1.00283   1.02285   0.97787
  159  C   1.05932   0.96840   0.99867   1.01713
  160  C   1.06440   0.95327   0.98773   0.93628
  161  C   1.05981   1.04366   0.98073   1.00548
  162  C   1.06090   0.96031   0.95691   0.98905
  163  C   1.05346   1.00525   1.07889   0.98458
  164  C   1.05969   0.97209   1.02706   1.00085
  165  C   1.06307   0.95343   0.98818   0.96165
  166  C   1.06405   0.98887   0.96003   0.94549
  167  C   1.05106   1.11194   1.00356   1.00066
  168  C   1.06365   0.95814   0.94997   0.98865
  169  C   1.08652   0.97269   0.84739   0.88470
  170  C   1.02350   0.93489   0.95442   1.19770
  171  C   1.02938   1.17785   0.96134   0.92826
  172  C   1.02122   0.94266   1.22011   0.95654
  173  C   1.01547   1.25385   0.95463   0.95635
  174  C   1.03308   0.92625   1.16735   0.96493
  175  C   1.04910   0.95076   0.88160   1.02914
  176  C   1.07567   0.87474   0.97351   0.96119
  177  C   1.03968   0.94977   1.08305   0.89779
  178  C   1.07371   0.87115   0.96991   0.95867
  179  C   1.07970   0.94377   0.86972   0.97778
  180  C   1.08449   0.97594   0.89089   0.84423
  181  C   1.07463   0.95326   0.87032   0.96853
  182  C   1.08232   0.86081   0.91881   0.97329
  183  C   1.02983   0.96256   0.93852   1.19314
  184  C   1.04119   0.96990   0.92261   1.14126
  185  C   1.07846   0.93346   0.97037   0.86412
  186  C   1.08633   0.90183   0.98039   0.85514
  187  C   1.07279   0.87179   0.96204   0.97004
  188  C   1.05168   0.96599   1.08038   0.90743
  189  C   1.02803   1.17584   0.92703   0.95750
  190  C   1.02492   0.94028   0.95998   1.20854
  191  C   1.02242   1.20486   0.94426   0.94996
  192  C   1.05911   0.97261   1.05328   0.90101
  193  C   1.03199   0.99604   1.12186   0.98649
  194  C   1.05775   0.99176   0.99771   0.96480
  195  C   1.04727   0.97617   1.00069   1.04840
  196  C   1.05805   0.98637   0.96292   0.99640
  197  C   1.06069   0.95497   0.98802   0.95687
  198  C   1.03866   1.08589   0.98225   1.00212
  199  C   1.05085   0.99471   1.01055   0.96906
  200  C   1.03049   1.15380   1.01380   0.99498
  201  C   1.05916   0.99098   0.96296   0.97348
  202  C   1.04398   1.07844   1.00832   0.97988
  203  C   1.03078   0.99354   1.14779   1.01238
  204  C   1.03575   0.98466   0.97780   1.08689
  205  C   1.03674   0.98764   1.12525   1.01600
  206  C   1.03096   1.14937   0.99354   1.01187
  207  C   1.05256   1.00397   1.02584   0.96910
  208  C   1.04007   1.00558   1.09262   0.98456
  209  C   1.03367   0.99060   1.01115   1.13535
  210  C   1.03295   0.98678   1.00946   1.13156
  211  C   1.05837   0.98136   0.97161   0.98081
  212  C   1.04566   1.01277   0.97705   1.07347
  213  C   1.05377   0.96964   1.01196   0.99762
  214  C   1.03476   1.10012   1.00419   0.98221
  215  C   1.06102   0.95353   0.94594   0.98126
  216  C   1.03527   1.01265   0.99080   1.12822
  217  C   1.05294   0.90856   0.88346   1.01695
  218  C   1.05302   0.88944   0.91046   1.00010
  219  C   1.05122   1.02772   0.91459   0.89752
  220  C   1.05321   0.88913   1.00235   0.91200
  221  C   1.05493   0.98324   0.91026   0.88386
  222  C   1.05151   0.89832   1.03041   0.91575
  223  C   1.05511   0.90158   0.88762   0.98400
  224  C   1.05085   0.91104   0.91531   1.08188
  225  C   1.05438   0.90243   0.98487   0.88658
  226  C   1.05505   0.89827   0.91165   1.03640
  227  C   1.04502   1.12635   0.91557   0.91890
  228  C   1.05415   0.90726   1.00187   0.87635
  229  C   1.05547   1.03462   0.89970   0.91067
  230  C   1.05236   0.90052   1.05620   0.91134
  231  C   1.05388   0.91534   0.89616   1.02101
  232  C   1.04981   0.92024   0.90940   1.06767
  233  C   1.05487   1.03665   0.91007   0.89840
  234  C   1.04183   1.14458   0.91932   0.91310
  235  C   1.05418   0.89736   1.03883   0.91195
  236  C   1.05499   0.91436   1.03582   0.90275
  237  C   1.05183   1.01627   0.89415   0.91235
  238  C   1.05305   0.89391   0.91342   1.00972
  239  C   1.05772   0.94049   0.87128   0.90378
  240  C   1.04971   0.91948   1.09024   0.91627
  241  C   1.07053   0.91468   0.95211   0.92573
  242  C   1.05619   0.97712   0.97991   1.00517
  243  C   1.04937   1.05649   1.01657   0.98858
  244  C   1.05891   0.96909   0.98746   0.96553
  245  C   1.06317   0.96565   0.94911   0.96397
  246  C   1.04701   0.99101   1.07286   1.02578
  247  C   1.05544   0.99567   0.98707   1.02117
  248  C   1.05607   0.97418   0.99123   1.01050
  249  C   1.05452   0.99211   1.02008   0.98524
  250  C   1.06397   0.96330   0.97026   0.98157
  251  C   1.05133   1.04907   0.98646   1.01813
  252  C   1.06315   0.92941   0.96251   0.95616
  253  C   1.06482   0.96231   0.95893   0.95275
  254  C   1.06309   0.96234   0.96638   0.95506
  255  C   1.06124   0.96271   0.96315   0.98092
  256  C   1.04771   1.02797   0.98747   1.06693
  257  C   1.06516   0.95758   0.94796   0.95765
  258  C   1.05171   1.04896   1.01598   0.98650
  259  C   1.06282   0.96705   0.99064   0.97760
  260  C   1.06157   0.96647   0.98086   0.96255
  261  C   1.05207   1.03637   0.98497   1.00301
  262  C   1.05175   0.98818   1.01375   1.05023
  263  C   1.06963   0.92301   0.95753   0.91431
  264  C   1.04914   1.02528   1.05800   0.98632
  265  C   1.04614   0.99564   0.97320   1.10843
  266  C   1.05569   0.97216   0.98123   1.06860
  267  C   1.05791   1.04534   0.97310   0.96633
  268  C   1.05413   0.97325   1.07586   0.98333
  269  C   1.05256   1.09132   0.98841   0.97659
  270  C   1.05681   0.96548   1.05072   0.97349
  271  C   1.05966   0.97075   0.95765   1.01860
  272  C   1.06238   0.93786   0.96072   0.95571
  273  C   1.05708   0.97431   1.04251   0.96304
  274  C   1.05860   0.94614   0.97014   0.99003
  275  C   1.06591   0.92325   0.93567   0.94890
  276  C   1.03842   1.00471   1.16551   0.97940
  277  C   1.05583   1.01251   0.94819   0.97723
  278  C   1.05621   0.94736   1.00561   0.97279
  279  C   1.05541   0.98045   0.96442   1.04824
  280  C   1.06212   0.96301   0.95260   0.99200
  281  C   1.05478   1.01652   0.97673   0.94876
  282  C   1.06465   0.92802   0.94712   0.93950
  283  C   1.06027   0.94590   0.97750   0.96561
  284  C   1.05771   0.97581   1.01031   0.95047
  285  C   1.05747   1.05142   0.96843   0.97548
  286  C   1.05685   0.96863   0.97694   1.05925
  287  C   1.04835   1.13012   0.98480   0.99931
  288  C   1.06550   0.95638   0.94542   0.93835
  289  H   0.83881
  290  H   0.83557
  291  H   0.84076
  292  H   0.83840
  293  H   0.84357
  294  H   0.84461
  295  H   0.83338
  296  H   0.83779
  297  H   0.83444
  298  H   0.82935
  299  H   0.84107
  300  H   0.83949
  301  H   0.82846
  302  H   0.83788
  303  H   0.83610
  304  H   0.84243
  305  H   0.83461
  306  H   0.83765
  307  H   0.83102
  308  H   0.83103
  309  H   0.83523
  310  H   0.84792
  311  H   0.85077
  312  H   0.83889
  313  H   0.84585
  314  H   0.83854
  315  H   0.84301
  316  H   0.84023
  317  H   0.83489
  318  H   0.84256
  319  H   0.83727
  320  H   0.84003
  321  H   0.83803
  322  H   0.84236
  323  H   0.84209
  324  H   0.84703
  325  H   0.84129
  326  H   0.84308
  327  H   0.83883
  328  H   0.84286
  329  H   0.84441
  330  H   0.84185
  331  H   0.84259
  332  H   0.83891
  333  H   0.84138
  334  H   0.83879
  335  H   0.84115
  336  H   0.83913
  337  H   0.80657
  338  H   0.82355
  339  H   0.82004
  340  H   0.82412
  341  H   0.82390
  342  H   0.81773
  343  H   0.82857
  344  H   0.80751
  345  H   0.82988
  346  H   0.81143
  347  H   0.80662
  348  H   0.81107
  349  H   0.81059
  350  H   0.80885
  351  H   0.81851
  352  H   0.81253
  353  H   0.81165
  354  H   0.80755
  355  H   0.81120
  356  H   0.81362
  357  H   0.82163
  358  H   0.82034
  359  H   0.82082
  360  H   0.80791

 **********************
 *                    *
 * JOB ENDED NORMALLY *
 *                    *
 **********************



 TOTAL JOB TIME:           642.73 SECONDS

 == MOPAC DONE ==
