 *******************************************************************************
 **                                                                           **
 **                              MOPAC v22.1.0                                **
 **                                                                           **
 *******************************************************************************
 **          Digital Object Identifier (DOI): 10.5281/zenodo.6511958          **
 **    Visit the DOI location for information on how to cite this program.    **
 *******************************************************************************

                              PM7 CALCULATION RESULTS

 *******************************************************************************
 *  CALCULATION DONE:                                Thu Feb  1 10:23:52 2024  *
 *  PM7        - The PM7 Hamiltonian to be used
 *  NOOPT      - DO NOT OPTIMIZE ANY COORDINATES
 *
 *
 *
 *                 CHARGE ON SYSTEM = 0
 *
 *
 *
 *  T=         - A TIME OF 172800.0 SECONDS REQUESTED
 *  DUMP=N     - RESTART FILE WRITTEN EVERY 7200.0 SECONDS REQUESTED
 *******************************************************************************
PM7 CHARGE=0 NOOPT


   ATOM   CHEMICAL          X               Y               Z
  NUMBER   SYMBOL      (ANGSTROMS)     (ANGSTROMS)     (ANGSTROMS)

     1       N         18.67404150      2.20340511      2.44538515   
     2       N         19.16951583      1.70802126      3.20978150   
     3       N         13.51414559      8.86519698      3.94728112   
     4       N         13.01869388      8.10082326      3.45182941   
     5       N          3.20996247     19.16951583      1.70808912   
     6       N          2.44552088     18.67401888      2.20338248   
     7       N          9.10717703     20.17580174      7.36334626   
     8       N          8.10080064      3.45196514     13.01867126   
     9       N          8.86521961      3.94737161     13.51416821   
    10       N         20.17584698      7.36336888      9.10717703   
    11       N          3.94728112     13.51410035      8.86517436   
    12       N          3.45182941     13.01864864      8.10080064   
    13       N         19.41145064      7.85882059      9.60260612   
    14       N         20.91327874     14.52049936     14.76247941   
    15       N          9.60260612     19.41142802      7.85882059   
    16       N         14.76252465     20.91327874     14.52052198   
    17       N         15.25797636     20.41780441     13.75612564   
    18       N          2.20340511      2.44536253     18.67386053   
    19       N          1.70788553      3.20984936     19.16935748   
    20       N          7.36336888      9.10708655     20.17584698   
    21       N         14.52049936     14.76250203     20.91325612   
    22       N          7.85868486      9.60260612     19.41140539   
    23       N         20.41782703     13.75612564     15.25793112   
    24       N         13.75612564     15.25795374     20.41778179   
    25       C         14.19986506      6.20680967      1.98635373   
    26       C         14.87361786      5.01220144      2.20797461   
    27       C         14.50403106      5.32851508      4.54789926   
    28       C         14.88339026      7.16029747      6.63887650   
    29       C         14.89135296      4.82806406      5.79589376   
    30       C         14.08829681      6.64217921      4.41029389   
    31       C         13.80021455      7.02454705      3.07909825   
    32       C         15.06332008      5.72963597      6.83251483   
    33       C         19.85519006      3.66903913      0.55146205   
    34       C         20.63499151      2.88921506      5.10390819   
    35       C         20.41337063      3.56299048      6.29853904   
    36       C         19.25525056      0.32778264      3.17173247   
    37       C         17.29382550      2.28916245      2.48345680   
    38       C         15.78880779      3.75264746      5.58101403   
    39       C         18.07346861      3.19342630      5.98208968   
    40       C         15.98240088      3.57262715      4.15035253   
    41       C         16.82545148      3.58074820      6.48251808   
    42       C         19.74389326      1.24503111      0.98687683   
    43       C         18.21105135      2.77760156      4.66844817   
    44       C         19.82428936      0.17676284      1.90141075   
    45       C         17.14276046      2.85808815      3.75382376   
    46       C         15.10433250      4.54493587      3.49349784   
    47       C         19.12782478      3.79370512      6.76571413   
    48       C         19.45567528      2.57627199      1.36915418   
    49       C         19.54226961      2.48956455      4.28605771   
    50       C          1.98628587     14.19986506      6.20678705   
    51       C          2.20790674     14.87364048      5.01215620   
    52       C          4.54785402     14.50394057      5.32846984   
    53       C          6.63883126     14.88336764      7.16029747   
    54       C          5.79587114     14.89130771      4.82806406   
    55       C          4.41027127     14.08831943      6.64217921   
    56       C          3.07907563     13.80019193      7.02454705   
    57       C          6.83249221     15.06329746      5.72963597   
    58       C         14.16891912      7.55684886      5.47849430   
    59       C         14.97971175     10.75918795      2.76608732   
    60       C         14.75806826     11.95379618      2.09233452   
    61       C          9.21817975      7.86323174      0.64314618   
    62       C         11.63847788      8.13884966      3.36600420   
    63       C         13.59992556      8.82714796      5.32749712   
    64       C         11.38493835     13.21330492      1.17718983   
    65       C         10.13346017     11.23636165      1.90267754   
    66       C         12.41809836     11.63752778      2.46205705   
    67       C          8.84859295     10.20320164      0.32683254   
    68       C         10.32705325      9.80570015      2.08262998   
    69       C         12.81559985     13.39318950      0.98352888   
    70       C         10.48338906     13.38531729      0.14056876   
    71       C         11.17008124     12.13793356      2.07471253   
    72       C          9.23598271     11.45119614      0.82726094   
    73       C         12.55574897     10.32381841      2.87761033   
    74       C         11.48750332      9.40917139      2.79701064   
    75       C         13.47252240     12.42103913      1.86166513   
    76       C          9.44889439      9.14877760      1.11041175   
    77       C         13.88694461      9.94140533      3.16571521   
    78       C         15.85560849      7.81722002      7.51696750   
    79       C          5.10379508     20.63503675      2.88921506   
    80       C          0.55150729     19.85507695      3.66894865   
    81       C          6.29844856     20.41341588      3.56289999   
    82       C          2.48361515     17.29380288      2.28925294   
    83       C          3.17198131     19.25563512      0.32791836   
    84       C          5.58103665     15.78880779      3.75264746   
    85       C          5.98227065     18.07340074      3.19320009   
    86       C          4.15039777     15.98242350      3.57276288   
    87       C          6.48265380     16.82538362      3.58058985   
    88       C          4.66849341     18.21102873      2.77782778   
    89       C          0.98708043     19.74396113      1.24500849   
    90       C          3.75384639     17.14282832      2.85840485   
    91       C          1.90163696     19.82456082      0.17685332   
    92       C          6.76573675     19.12784740      3.79354677   
    93       C          3.49345260     15.10433250      4.54491325   
    94       C          4.28605771     19.54220175      2.48985863   
    95       C          1.36926729     19.45560741      2.57618151   
    96       C          7.55793468     17.04026335      4.47818041   
    97       C          9.02139706     20.13773009      5.98313026   
    98       C          8.11735943     16.63909722      6.76275074   
    99       C          7.73781926     18.47094747      4.67179612   
   100       C          7.72996967     16.13866882      5.51475624   
   101       C          8.53295795     17.95278397      6.90040135   
   102       C          8.45226777     18.86745361      5.83220094   
   103       C         21.97810858     20.52882975      3.44741826   
   104       C         20.71853197     21.44401968      0.07410738   
   105       C         22.29467105     20.15949178      1.10738050   
   106       C         20.53857953     21.63761277      1.50485936   
   107       C         21.51088825     20.75956701      2.16180453   
   108       C          6.20683229      1.98630849     14.20002341   
   109       C          5.01213358      2.20777102     14.87373096   
   110       C          5.32842459      4.54780877     14.50405368   
   111       C          7.16016174      6.63898961     14.88316405   
   112       C          4.82792833      5.79584852     14.89137558   
   113       C          6.64217921      4.41022603     14.08850040   
   114       C          7.02459229      3.07903039     13.80032766   
   115       C          5.72943238      6.83256007     15.06322959   
   116       C          7.55678099      5.47851692     14.16885125   
   117       C         10.75927843      2.76610994     14.97959865   
   118       C          7.86323174      0.64319142      9.21838334   
   119       C         11.95393191      2.09240239     14.75806826   
   120       C          8.82717058      5.32758761     13.59994818   
   121       C          8.13880442      3.36625303     11.63845526   
   122       C         13.21328230      1.17709935     11.38496097   
   123       C         11.23631641      1.90263230     10.13348279   
   124       C         10.20320164      0.32683254      8.84863819   
   125       C         11.63743730      2.46192132     12.41809836   
   126       C         13.39325736      0.98352888     12.81559985   
   127       C          9.80565491      2.08262998     10.32707588   
   128       C         12.13786570      2.07457680     11.17010386   
   129       C         11.45119614      0.82723832      9.23600533   
   130       C         13.38529467      0.14050089     10.48338906   
   131       C         10.32372792      2.87758771     12.55570373   
   132       C          9.40908090      2.79712374     11.48745808   
   133       C          9.14880022      1.11038913      9.44900750   
   134       C         12.42108437      1.86168775     13.47249978   
   135       C          9.94138271      3.16566996     13.88689937   
   136       C         17.04026335      4.47818041      7.55795730   
   137       C         20.13779796      5.98315288      9.02132920   
   138       C         16.63916508      6.76279598      8.11729156   
   139       C         18.47092485      4.67175088      7.73795498   
   140       C         16.13871406      5.51477886      7.73001491   
   141       C         17.95282921      6.90037873      8.53295795   
   142       C         18.86745361      5.83215570      8.45238088   
   143       C          5.47844906     14.16896436      7.55682624   
   144       C          2.76608732     14.97959865     10.75925581   
   145       C          2.09233452     14.75809088     11.95388667   
   146       C          0.64316880      9.21831548      7.86325437   
   147       C          3.36604944     11.63845526      8.13880442   
   148       C          5.32751974     13.59992556      8.82710272   
   149       C          1.90270016     10.13348279     11.23636165   
   150       C          1.17723507     11.38496097     13.21332754   
   151       C          2.46192132     12.41814361     11.63745992   
   152       C          0.32683254      8.84872868     10.20317902   
   153       C          0.98357412     12.81557723     13.39327998   
   154       C          2.08260736     10.32712112      9.80570015   
   155       C          0.82726094      9.23600533     11.45121876   
   156       C          0.14052352     10.48338906     13.38531729   
   157       C          2.07462204     11.17010386     12.13793356   
   158       C          2.87756509     12.55574897     10.32377317   
   159       C          2.79703326     11.48752594      9.40912614   
   160       C          1.86161988     13.47252240     12.42103913   
   161       C          1.11041175      9.44905274      9.14877760   
   162       C          3.16573783     13.88692199      9.94140533   
   163       C         17.51741443      9.32431889      8.42141232   
   164       C         18.95230611     11.86211205     14.07675994   
   165       C         22.06986057      8.54451744      7.64170135   
   166       C         16.32278358      9.10278850      7.74763690   
   167       C         19.17388174     10.66748120     13.40298452   
   168       C         22.29349474     14.48247296     14.67660895   
   169       C         19.44949966      7.94464580     10.98284474   
   170       C         22.54703427      9.40799508     12.48781721   
   171       C         21.51387426     10.98384008     13.77259394   
   172       C         21.11635015      9.22806526     12.29415626   
   173       C         21.37622365     12.29752683     14.18823771   
   174       C         21.63444579      8.43303967     10.06561889   
   175       C         22.44444668     13.21215124     14.10763802   
   176       C         20.71979876      8.51366198     11.13379668   
   177       C         20.45942760     10.20023825     13.17224726   
   178       C         18.33519705      8.23157437      8.82106283   
   179       C         20.04507325     12.67989467     14.47636521   
   180       C         21.25210057      8.14491217      8.73442325   
   181       C          7.51699013     15.85556325      7.81719740   
   182       C          7.64167873     22.06986057      8.54458530   
   183       C          8.42141232     17.51743705      9.32434151   
   184       C         14.07669208     18.95228349     11.86213467   
   185       C          7.74768214     16.32278358      9.10276588   
   186       C         13.40293928     19.17390437     10.66752644   
   187       C         10.98282212     19.44945442      7.94466842   
   188       C         14.67669944     22.29349474     14.48247296   
   189       C         12.48781721     22.54698903      9.40797246   
   190       C         13.77266181     21.51380639     10.98379484   
   191       C         12.29420150     21.11635015      9.22799739   
   192       C         10.06561889     21.63446841      8.43292656   
   193       C         14.18835082     21.37622365     12.29748159   
   194       C         11.13381930     20.71982139      8.51354888   
   195       C         14.10770588     22.44442406     13.21212861   
   196       C         13.17226988     20.45942760     10.20023825   
   197       C          8.73442325     21.25210057      8.14482169   
   198       C          8.82104021     18.33519705      8.23157437   
   199       C         14.47641045     20.04502801     12.67991729   
   200       C         19.73206232     16.41451295     13.29700373   
   201       C         19.05830952     17.60914380     13.51857937   
   202       C         16.63819236     20.33197920     13.79417466   
   203       C         18.82761750     18.07636413     14.80412522   
   204       C         20.13171283     15.59673033     14.38972563   
   205       C         16.78909906     19.76294040     15.06447376   
   206       C          3.66894865      0.55123584     19.85523530   
   207       C          2.88932816      5.10395343     20.63481054   
   208       C          3.56319407      6.29860691     20.41359685   
   209       C          0.32769215      3.17161937     19.25482076   
   210       C          2.28920770      2.48356991     17.29355405   
   211       C          3.75257959      5.58101403     15.78883041   
   212       C          3.19362989      5.98206706     18.07358171   
   213       C          3.57233307      4.15037515     15.98212942   
   214       C          3.58079344      6.48260856     16.82547411   
   215       C          1.24525732      0.98712567     19.74391588   
   216       C          2.77748846      4.66853865     18.21096087   
   217       C          0.17687594      1.90147861     19.82426674   
   218       C          2.85790718      3.75400474     17.14257949   
   219       C          4.54475490      3.49331687     15.10426463   
   220       C          3.79384084      6.76571413     19.12798313   
   221       C          2.57640772      1.36924467     19.45551693   
   222       C          2.48938358      4.28617082     19.54226961   
   223       C          7.81712953      7.51689964     15.85554063   
   224       C         20.52894286      3.44746350     21.97810858   
   225       C         21.44399706      0.07428835     20.71841887   
   226       C         20.15942392      1.10753885     22.29442222   
   227       C         21.63761277      1.50494985     20.53848905   
   228       C         20.75974798      2.16194026     21.51088825   
   229       C          4.47815779      7.55809303     17.04035383   
   230       C          5.98317550      9.02110298     20.13791106   
   231       C          6.76281861      8.11722370     16.63911984   
   232       C          4.67193185      7.73790974     18.47103795   
   233       C          5.51473362      7.72996967     16.13871406   
   234       C          6.90044659      8.53268650     17.95285183   
   235       C          5.83238192      8.45215467     18.86756672   
   236       C          8.54447219      7.64163349     22.06981533   
   237       C         11.86215729     14.07671470     18.95223825   
   238       C          9.32429627      8.42154805     17.51736919   
   239       C         10.66754906     13.40296190     19.17392699   
   240       C          9.10263015      7.74775001     16.32278358   
   241       C          7.94457794     10.98282212     19.44949966   
   242       C         14.48242772     14.67665420     22.29347212   
   243       C          9.40804032     12.48779459     22.54698903   
   244       C         10.98384008     13.77268443     21.51389688   
   245       C          9.22815574     12.29415626     21.11632753   
   246       C          8.43301705     10.06557365     21.63442317   
   247       C         12.29752683     14.18828295     21.37622365   
   248       C          8.51366198     11.13381930     20.71979876   
   249       C         13.21212861     14.10763802     22.44444668   
   250       C         10.20035135     13.17229250     20.45947284   
   251       C          8.14500266      8.73440063     21.25201009   
   252       C         12.67991729     14.47636521     20.04500539   
   253       C          8.23157437      8.82099496     18.33517443   
   254       C         16.41453557     13.29700373     19.73208494   
   255       C         17.60914380     13.51857937     19.05833214   
   256       C         20.33197920     13.79415204     16.63814712   
   257       C         18.07638675     14.80410260     18.82761750   
   258       C         15.59673033     14.38974825     20.13171283   
   259       C         19.76298564     15.06447376     16.78909906   
   260       C          3.44732777     21.97799547     20.52921431   
   261       C          0.07424311     20.71859984     21.44399706   
   262       C          1.10753885     22.29469367     20.15971800   
   263       C          1.50490460     20.53876050     21.63777112   
   264       C          2.16178191     21.51097873     20.75992895   
   265       C         13.29698111     19.73206232     16.41453557   
   266       C         13.51853412     19.05830952     17.60916642   
   267       C         13.79415204     16.63816974     20.33193395   
   268       C         14.80407998     18.82764013     18.07640937   
   269       C         14.38972563     20.13169021     15.59673033   
   270       C         15.06445114     16.78909906     19.76296302   
   271       C         18.14314221     18.86862992     16.89170927   
   272       C         16.89166403     18.14314221     18.86865254   
   273       C         18.86862992     16.89168665     18.14314221   
   274       C         17.29283016     15.85850402     19.42796419   
   275       C         19.42796419     17.29280754     15.85852664   
   276       C         15.85850402     19.42798681     17.29283016   
   277       C         15.46100253     17.94952650     19.04858236   
   278       C         19.04853712     15.46102515     17.94948126   
   279       C         17.94950388     19.04853712     15.46104777   
   280       C         21.79401644     20.54670058     22.48070862   
   281       C         19.04064229     17.79323594     17.10654376   
   282       C         22.48068600     21.79401644     20.54665533   
   283       C         17.10652114     19.04064229     17.79328118   
   284       C         20.54661009     22.48068600     21.79390333   
   285       C         17.79323594     17.10652114     19.04064229   
   286       C         15.97912079     15.72092127     19.84358533   
   287       C         19.84358533     15.97912079     15.72089865   
   288       C         15.72089865     19.84356271     15.97912079   
   289       H         13.99012036      6.54687568      0.97205988   
   290       H          9.59898671      7.01131359      1.20682373   
   291       H         10.92364480      7.32577228      3.68550744   
   292       H         15.25422123      4.44852389      1.35603383   
   293       H         21.64928536      2.67949298      4.76379695   
   294       H         19.64551323      4.68337822      0.89143757   
   295       H         21.26526617      3.94368434      6.86232970   
   296       H         16.57878883      1.96986280      1.67044728   
   297       H          0.97208250     13.99009774      6.54696616   
   298       H          1.20680111      9.59887361      7.01117786   
   299       H          3.68548482     10.92357694      7.32574966   
   300       H         13.28044494      9.64022534      6.04239806   
   301       H         21.72968146      8.33481799      6.62745275   
   302       H         15.99400560     10.41905408      2.97587726   
   303       H         15.61003166     12.51751898      1.71173115   
   304       H         15.29548248     14.99613482      0.38705044   
   305       H         15.75906078      9.95479714      7.36705615   
   306       H          1.35594334     15.25424385      4.44843340   
   307       H          4.76348025     21.64926274      2.67926677   
   308       H          0.89195786     19.64526439      4.68315201   
   309       H          6.86212611     21.26535666      3.94359385   
   310       H          1.67044728     16.57899242      1.96984018   
   311       H          9.34080982     20.95087534      5.26831980   
   312       H         18.93576994     22.23440791      3.98494559   
   313       H         21.41454413     20.90963671      4.29942690   
   314       H          6.54694354      0.97208250     13.98998464   
   315       H          7.01131359      1.20698208      9.59896409   
   316       H          7.32574966      3.68543957     10.92341859   
   317       H          9.64042894      6.04223972     13.28033183   
   318       H         20.95083010      5.26827456      9.34083244   
   319       H          6.04235282     13.28044494      9.64024797   
   320       H         17.85754830     10.33859012      8.63117964   
   321       H         17.93805750     12.20224592     14.28650464   
   322       H         18.32191834     10.10378102     13.02240377   
   323       H         18.63642228      7.62514256     11.69770044   
   324       H          2.97580939     15.99391512     10.41912195   
   325       H          6.62743012     21.72972670      8.33479536   
   326       H          1.71168591     15.61007690     12.51751898   
   327       H          0.38709569     15.29548248     14.99615744   
   328       H          7.36705615     15.75912865      9.95475190   
   329       H         14.28654988     17.93803488     12.20224592   
   330       H          8.63122488     17.85761616     10.33859012   
   331       H         13.02244901     18.32194096     10.10378102   
   332       H         11.69776831     18.63649014      7.62516518   
   333       H         19.94185226     16.07435646     12.28273250   
   334       H         18.67772877     18.17282135     12.66657072   
   335       H         17.35302544     20.65150506     12.98105203   
   336       H          4.44868224      1.35551354     15.25415337   
   337       H          2.67985493      4.76440772     21.64926274   
   338       H          4.68342347      0.89087204     19.64582993   
   339       H          3.94352599      6.86235233     21.26576384   
   340       H          1.96981756      1.67035679     16.57865310   
   341       H          8.33468226      6.62740750     21.72952311   
   342       H         10.41921243      2.97571891     15.99391512   
   343       H         12.51751898      1.71166329     15.61007690   
   344       H         14.99613482      0.38709569     15.29555034   
   345       H          9.95457093      7.36703353     15.75919651   
   346       H         22.23388762      3.98480986     18.93608664   
   347       H         20.90947837      4.29969835     21.41470248   
   348       H          5.26834242      9.34096817     20.95089797   
   349       H         10.33838653      8.63131536     17.85795548   
   350       H         12.20215543     14.28650464     17.93794440   
   351       H         10.10371316     13.02240377     18.32203145   
   352       H          7.62518780     11.69779093     18.63646752   
   353       H         16.07435646     12.28275512     19.94182964   
   354       H         18.17284398     12.66659334     18.67770615   
   355       H         20.65148244     12.98114252     17.35304806   
   356       H          3.98480986     18.93556635     22.23436266   
   357       H          4.29922331     21.41409170     20.90961409   
   358       H         12.28273250     19.94182964     16.07437908   
   359       H         12.66654810     18.67766091     18.17286660   
   360       H         12.98109728     17.35302544     20.65152768   
   361      Tv         22.62130000      0.00000000      0.00000000   
   362      Tv          0.00000000     22.62130000      0.00000000   
   363      Tv          0.00000000      0.00000000     22.62130000   


                   THE SYSTEM IS A SOLID


                UNIT CELL TRANSLATION VECTORS

              X                Y              Z
    T1 =    22.6213000      0.0000000      0.0000000
    T2 =     0.0000000     22.6213000      0.0000000
    T3 =     0.0000000      0.0000000     22.6213000


          CARTESIAN COORDINATES 

    NO.       ATOM           X           Y           Z

     1         N         18.6740      2.2034      2.4454
     2         N         19.1695      1.7080      3.2098
     3         N         13.5141      8.8652      3.9473
     4         N         13.0187      8.1008      3.4518
     5         N          3.2100     19.1695      1.7081
     6         N          2.4455     18.6740      2.2034
     7         N          9.1072     20.1758      7.3633
     8         N          8.1008      3.4520     13.0187
     9         N          8.8652      3.9474     13.5142
    10         N         20.1758      7.3634      9.1072
    11         N          3.9473     13.5141      8.8652
    12         N          3.4518     13.0186      8.1008
    13         N         19.4115      7.8588      9.6026
    14         N         20.9133     14.5205     14.7625
    15         N          9.6026     19.4114      7.8588
    16         N         14.7625     20.9133     14.5205
    17         N         15.2580     20.4178     13.7561
    18         N          2.2034      2.4454     18.6739
    19         N          1.7079      3.2098     19.1694
    20         N          7.3634      9.1071     20.1758
    21         N         14.5205     14.7625     20.9133
    22         N          7.8587      9.6026     19.4114
    23         N         20.4178     13.7561     15.2579
    24         N         13.7561     15.2580     20.4178
    25         C         14.1999      6.2068      1.9864
    26         C         14.8736      5.0122      2.2080
    27         C         14.5040      5.3285      4.5479
    28         C         14.8834      7.1603      6.6389
    29         C         14.8914      4.8281      5.7959
    30         C         14.0883      6.6422      4.4103
    31         C         13.8002      7.0245      3.0791
    32         C         15.0633      5.7296      6.8325
    33         C         19.8552      3.6690      0.5515
    34         C         20.6350      2.8892      5.1039
    35         C         20.4134      3.5630      6.2985
    36         C         19.2553      0.3278      3.1717
    37         C         17.2938      2.2892      2.4835
    38         C         15.7888      3.7526      5.5810
    39         C         18.0735      3.1934      5.9821
    40         C         15.9824      3.5726      4.1504
    41         C         16.8255      3.5807      6.4825
    42         C         19.7439      1.2450      0.9869
    43         C         18.2111      2.7776      4.6684
    44         C         19.8243      0.1768      1.9014
    45         C         17.1428      2.8581      3.7538
    46         C         15.1043      4.5449      3.4935
    47         C         19.1278      3.7937      6.7657
    48         C         19.4557      2.5763      1.3692
    49         C         19.5423      2.4896      4.2861
    50         C          1.9863     14.1999      6.2068
    51         C          2.2079     14.8736      5.0122
    52         C          4.5479     14.5039      5.3285
    53         C          6.6388     14.8834      7.1603
    54         C          5.7959     14.8913      4.8281
    55         C          4.4103     14.0883      6.6422
    56         C          3.0791     13.8002      7.0245
    57         C          6.8325     15.0633      5.7296
    58         C         14.1689      7.5568      5.4785
    59         C         14.9797     10.7592      2.7661
    60         C         14.7581     11.9538      2.0923
    61         C          9.2182      7.8632      0.6431
    62         C         11.6385      8.1388      3.3660
    63         C         13.5999      8.8271      5.3275
    64         C         11.3849     13.2133      1.1772
    65         C         10.1335     11.2364      1.9027
    66         C         12.4181     11.6375      2.4621
    67         C          8.8486     10.2032      0.3268
    68         C         10.3271      9.8057      2.0826
    69         C         12.8156     13.3932      0.9835
    70         C         10.4834     13.3853      0.1406
    71         C         11.1701     12.1379      2.0747
    72         C          9.2360     11.4512      0.8273
    73         C         12.5557     10.3238      2.8776
    74         C         11.4875      9.4092      2.7970
    75         C         13.4725     12.4210      1.8617
    76         C          9.4489      9.1488      1.1104
    77         C         13.8869      9.9414      3.1657
    78         C         15.8556      7.8172      7.5170
    79         C          5.1038     20.6350      2.8892
    80         C          0.5515     19.8551      3.6689
    81         C          6.2984     20.4134      3.5629
    82         C          2.4836     17.2938      2.2893
    83         C          3.1720     19.2556      0.3279
    84         C          5.5810     15.7888      3.7526
    85         C          5.9823     18.0734      3.1932
    86         C          4.1504     15.9824      3.5728
    87         C          6.4827     16.8254      3.5806
    88         C          4.6685     18.2110      2.7778
    89         C          0.9871     19.7440      1.2450
    90         C          3.7538     17.1428      2.8584
    91         C          1.9016     19.8246      0.1769
    92         C          6.7657     19.1278      3.7935
    93         C          3.4935     15.1043      4.5449
    94         C          4.2861     19.5422      2.4899
    95         C          1.3693     19.4556      2.5762
    96         C          7.5579     17.0403      4.4782
    97         C          9.0214     20.1377      5.9831
    98         C          8.1174     16.6391      6.7628
    99         C          7.7378     18.4709      4.6718
   100         C          7.7300     16.1387      5.5148
   101         C          8.5330     17.9528      6.9004
   102         C          8.4523     18.8675      5.8322
   103         C         21.9781     20.5288      3.4474
   104         C         20.7185     21.4440      0.0741
   105         C         22.2947     20.1595      1.1074
   106         C         20.5386     21.6376      1.5049
   107         C         21.5109     20.7596      2.1618
   108         C          6.2068      1.9863     14.2000
   109         C          5.0121      2.2078     14.8737
   110         C          5.3284      4.5478     14.5041
   111         C          7.1602      6.6390     14.8832
   112         C          4.8279      5.7958     14.8914
   113         C          6.6422      4.4102     14.0885
   114         C          7.0246      3.0790     13.8003
   115         C          5.7294      6.8326     15.0632
   116         C          7.5568      5.4785     14.1689
   117         C         10.7593      2.7661     14.9796
   118         C          7.8632      0.6432      9.2184
   119         C         11.9539      2.0924     14.7581
   120         C          8.8272      5.3276     13.5999
   121         C          8.1388      3.3663     11.6385
   122         C         13.2133      1.1771     11.3850
   123         C         11.2363      1.9026     10.1335
   124         C         10.2032      0.3268      8.8486
   125         C         11.6374      2.4619     12.4181
   126         C         13.3933      0.9835     12.8156
   127         C          9.8057      2.0826     10.3271
   128         C         12.1379      2.0746     11.1701
   129         C         11.4512      0.8272      9.2360
   130         C         13.3853      0.1405     10.4834
   131         C         10.3237      2.8776     12.5557
   132         C          9.4091      2.7971     11.4875
   133         C          9.1488      1.1104      9.4490
   134         C         12.4211      1.8617     13.4725
   135         C          9.9414      3.1657     13.8869
   136         C         17.0403      4.4782      7.5580
   137         C         20.1378      5.9832      9.0213
   138         C         16.6392      6.7628      8.1173
   139         C         18.4709      4.6718      7.7380
   140         C         16.1387      5.5148      7.7300
   141         C         17.9528      6.9004      8.5330
   142         C         18.8675      5.8322      8.4524
   143         C          5.4784     14.1690      7.5568
   144         C          2.7661     14.9796     10.7593
   145         C          2.0923     14.7581     11.9539
   146         C          0.6432      9.2183      7.8633
   147         C          3.3660     11.6385      8.1388
   148         C          5.3275     13.5999      8.8271
   149         C          1.9027     10.1335     11.2364
   150         C          1.1772     11.3850     13.2133
   151         C          2.4619     12.4181     11.6375
   152         C          0.3268      8.8487     10.2032
   153         C          0.9836     12.8156     13.3933
   154         C          2.0826     10.3271      9.8057
   155         C          0.8273      9.2360     11.4512
   156         C          0.1405     10.4834     13.3853
   157         C          2.0746     11.1701     12.1379
   158         C          2.8776     12.5557     10.3238
   159         C          2.7970     11.4875      9.4091
   160         C          1.8616     13.4725     12.4210
   161         C          1.1104      9.4491      9.1488
   162         C          3.1657     13.8869      9.9414
   163         C         17.5174      9.3243      8.4214
   164         C         18.9523     11.8621     14.0768
   165         C         22.0699      8.5445      7.6417
   166         C         16.3228      9.1028      7.7476
   167         C         19.1739     10.6675     13.4030
   168         C         22.2935     14.4825     14.6766
   169         C         19.4495      7.9446     10.9828
   170         C         22.5470      9.4080     12.4878
   171         C         21.5139     10.9838     13.7726
   172         C         21.1164      9.2281     12.2942
   173         C         21.3762     12.2975     14.1882
   174         C         21.6344      8.4330     10.0656
   175         C         22.4444     13.2122     14.1076
   176         C         20.7198      8.5137     11.1338
   177         C         20.4594     10.2002     13.1722
   178         C         18.3352      8.2316      8.8211
   179         C         20.0451     12.6799     14.4764
   180         C         21.2521      8.1449      8.7344
   181         C          7.5170     15.8556      7.8172
   182         C          7.6417     22.0699      8.5446
   183         C          8.4214     17.5174      9.3243
   184         C         14.0767     18.9523     11.8621
   185         C          7.7477     16.3228      9.1028
   186         C         13.4029     19.1739     10.6675
   187         C         10.9828     19.4495      7.9447
   188         C         14.6767     22.2935     14.4825
   189         C         12.4878     22.5470      9.4080
   190         C         13.7727     21.5138     10.9838
   191         C         12.2942     21.1164      9.2280
   192         C         10.0656     21.6345      8.4329
   193         C         14.1884     21.3762     12.2975
   194         C         11.1338     20.7198      8.5135
   195         C         14.1077     22.4444     13.2121
   196         C         13.1723     20.4594     10.2002
   197         C          8.7344     21.2521      8.1448
   198         C          8.8210     18.3352      8.2316
   199         C         14.4764     20.0450     12.6799
   200         C         19.7321     16.4145     13.2970
   201         C         19.0583     17.6091     13.5186
   202         C         16.6382     20.3320     13.7942
   203         C         18.8276     18.0764     14.8041
   204         C         20.1317     15.5967     14.3897
   205         C         16.7891     19.7629     15.0645
   206         C          3.6689      0.5512     19.8552
   207         C          2.8893      5.1040     20.6348
   208         C          3.5632      6.2986     20.4136
   209         C          0.3277      3.1716     19.2548
   210         C          2.2892      2.4836     17.2936
   211         C          3.7526      5.5810     15.7888
   212         C          3.1936      5.9821     18.0736
   213         C          3.5723      4.1504     15.9821
   214         C          3.5808      6.4826     16.8255
   215         C          1.2453      0.9871     19.7439
   216         C          2.7775      4.6685     18.2110
   217         C          0.1769      1.9015     19.8243
   218         C          2.8579      3.7540     17.1426
   219         C          4.5448      3.4933     15.1043
   220         C          3.7938      6.7657     19.1280
   221         C          2.5764      1.3692     19.4555
   222         C          2.4894      4.2862     19.5423
   223         C          7.8171      7.5169     15.8555
   224         C         20.5289      3.4475     21.9781
   225         C         21.4440      0.0743     20.7184
   226         C         20.1594      1.1075     22.2944
   227         C         21.6376      1.5049     20.5385
   228         C         20.7597      2.1619     21.5109
   229         C          4.4782      7.5581     17.0404
   230         C          5.9832      9.0211     20.1379
   231         C          6.7628      8.1172     16.6391
   232         C          4.6719      7.7379     18.4710
   233         C          5.5147      7.7300     16.1387
   234         C          6.9004      8.5327     17.9529
   235         C          5.8324      8.4522     18.8676
   236         C          8.5445      7.6416     22.0698
   237         C         11.8622     14.0767     18.9522
   238         C          9.3243      8.4215     17.5174
   239         C         10.6675     13.4030     19.1739
   240         C          9.1026      7.7478     16.3228
   241         C          7.9446     10.9828     19.4495
   242         C         14.4824     14.6767     22.2935
   243         C          9.4080     12.4878     22.5470
   244         C         10.9838     13.7727     21.5139
   245         C          9.2282     12.2942     21.1163
   246         C          8.4330     10.0656     21.6344
   247         C         12.2975     14.1883     21.3762
   248         C          8.5137     11.1338     20.7198
   249         C         13.2121     14.1076     22.4444
   250         C         10.2004     13.1723     20.4595
   251         C          8.1450      8.7344     21.2520
   252         C         12.6799     14.4764     20.0450
   253         C          8.2316      8.8210     18.3352
   254         C         16.4145     13.2970     19.7321
   255         C         17.6091     13.5186     19.0583
   256         C         20.3320     13.7942     16.6381
   257         C         18.0764     14.8041     18.8276
   258         C         15.5967     14.3897     20.1317
   259         C         19.7630     15.0645     16.7891
   260         C          3.4473     21.9780     20.5292
   261         C          0.0742     20.7186     21.4440
   262         C          1.1075     22.2947     20.1597
   263         C          1.5049     20.5388     21.6378
   264         C          2.1618     21.5110     20.7599
   265         C         13.2970     19.7321     16.4145
   266         C         13.5185     19.0583     17.6092
   267         C         13.7942     16.6382     20.3319
   268         C         14.8041     18.8276     18.0764
   269         C         14.3897     20.1317     15.5967
   270         C         15.0645     16.7891     19.7630
   271         C         18.1431     18.8686     16.8917
   272         C         16.8917     18.1431     18.8687
   273         C         18.8686     16.8917     18.1431
   274         C         17.2928     15.8585     19.4280
   275         C         19.4280     17.2928     15.8585
   276         C         15.8585     19.4280     17.2928
   277         C         15.4610     17.9495     19.0486
   278         C         19.0485     15.4610     17.9495
   279         C         17.9495     19.0485     15.4610
   280         C         21.7940     20.5467     22.4807
   281         C         19.0406     17.7932     17.1065
   282         C         22.4807     21.7940     20.5467
   283         C         17.1065     19.0406     17.7933
   284         C         20.5466     22.4807     21.7939
   285         C         17.7932     17.1065     19.0406
   286         C         15.9791     15.7209     19.8436
   287         C         19.8436     15.9791     15.7209
   288         C         15.7209     19.8436     15.9791
   289         H         13.9901      6.5469      0.9721
   290         H          9.5990      7.0113      1.2068
   291         H         10.9236      7.3258      3.6855
   292         H         15.2542      4.4485      1.3560
   293         H         21.6493      2.6795      4.7638
   294         H         19.6455      4.6834      0.8914
   295         H         21.2653      3.9437      6.8623
   296         H         16.5788      1.9699      1.6704
   297         H          0.9721     13.9901      6.5470
   298         H          1.2068      9.5989      7.0112
   299         H          3.6855     10.9236      7.3257
   300         H         13.2804      9.6402      6.0424
   301         H         21.7297      8.3348      6.6275
   302         H         15.9940     10.4191      2.9759
   303         H         15.6100     12.5175      1.7117
   304         H         15.2955     14.9961      0.3871
   305         H         15.7591      9.9548      7.3671
   306         H          1.3559     15.2542      4.4484
   307         H          4.7635     21.6493      2.6793
   308         H          0.8920     19.6453      4.6832
   309         H          6.8621     21.2654      3.9436
   310         H          1.6704     16.5790      1.9698
   311         H          9.3408     20.9509      5.2683
   312         H         18.9358     22.2344      3.9849
   313         H         21.4145     20.9096      4.2994
   314         H          6.5469      0.9721     13.9900
   315         H          7.0113      1.2070      9.5990
   316         H          7.3257      3.6854     10.9234
   317         H          9.6404      6.0422     13.2803
   318         H         20.9508      5.2683      9.3408
   319         H          6.0424     13.2804      9.6402
   320         H         17.8575     10.3386      8.6312
   321         H         17.9381     12.2022     14.2865
   322         H         18.3219     10.1038     13.0224
   323         H         18.6364      7.6251     11.6977
   324         H          2.9758     15.9939     10.4191
   325         H          6.6274     21.7297      8.3348
   326         H          1.7117     15.6101     12.5175
   327         H          0.3871     15.2955     14.9962
   328         H          7.3671     15.7591      9.9548
   329         H         14.2865     17.9380     12.2022
   330         H          8.6312     17.8576     10.3386
   331         H         13.0224     18.3219     10.1038
   332         H         11.6978     18.6365      7.6252
   333         H         19.9419     16.0744     12.2827
   334         H         18.6777     18.1728     12.6666
   335         H         17.3530     20.6515     12.9811
   336         H          4.4487      1.3555     15.2542
   337         H          2.6799      4.7644     21.6493
   338         H          4.6834      0.8909     19.6458
   339         H          3.9435      6.8624     21.2658
   340         H          1.9698      1.6704     16.5787
   341         H          8.3347      6.6274     21.7295
   342         H         10.4192      2.9757     15.9939
   343         H         12.5175      1.7117     15.6101
   344         H         14.9961      0.3871     15.2956
   345         H          9.9546      7.3670     15.7592
   346         H         22.2339      3.9848     18.9361
   347         H         20.9095      4.2997     21.4147
   348         H          5.2683      9.3410     20.9509
   349         H         10.3384      8.6313     17.8580
   350         H         12.2022     14.2865     17.9379
   351         H         10.1037     13.0224     18.3220
   352         H          7.6252     11.6978     18.6365
   353         H         16.0744     12.2828     19.9418
   354         H         18.1728     12.6666     18.6777
   355         H         20.6515     12.9811     17.3530
   356         H          3.9848     18.9356     22.2344
   357         H          4.2992     21.4141     20.9096
   358         H         12.2827     19.9418     16.0744
   359         H         12.6665     18.6777     18.1729
   360         H         12.9811     17.3530     20.6515

 General Reference for PM7:
 "Optimization of Parameters for Semiempirical Methods VI: More Modifications to the 
 NDDO Approximations and Re-optimization of Parameters", J. J. P. Stewart, J. Mol. Mod., 1:32, 19 (2013)
 https://link.springer.com/article/10.1007/s00894-012-1667-x

           Empirical Formula: C264 H72 N24  =   360 atoms



      RHF CALCULATION, NO. OF DOUBLY OCCUPIED LEVELS = 624


 -------------------------------------------------------------------------------
 PM7 CHARGE=0 NOOPT




     NO PARAMETERS MARKED FOR OPTIMIZATION, SO 1SCF WAS USED  
     SCF FIELD WAS ACHIEVED                                   


                              PM7 CALCULATION
                                                       MOPAC v22.1.0 Linux
                                                       Thu Feb  1 10:26:04 2024




          FINAL HEAT OF FORMATION =       6539.52713 KCAL/MOL =   27361.38152 KJ/MOL
          H.o.F. per unit cell    =        272.48030 KCAL, for 24 unit cells, unit cell = C11 H3 N1



          IONIZATION POTENTIAL    =          7.816362 EV
          HOMO LUMO ENERGIES (EV) =         -7.816 -2.981
          NO. OF FILLED LEVELS    =        624
          MOLECULAR WEIGHT        =       3579.6336

                   THE SYSTEM IS A SOLID


                UNIT CELL TRANSLATION VECTORS

              X                Y              Z
    T1 =    22.6213000      0.0000000      0.0000000
    T2 =     0.0000000     22.6213000      0.0000000
    T3 =     0.0000000      0.0000000     22.6213000

          VOLUME OF UNIT CELL     =      11575.844 CUBIC ANGSTROMS

          DENSITY                 =          0.513 GRAMS/CC
                              A   =         22.621 ANGSTROMS
                              B   =         22.621 ANGSTROMS
                              C   =         22.621 ANGSTROMS
                            ALPHA =         90.000 DEGREES
                            BETA  =         90.000 DEGREES
                            GAMMA =         90.000 DEGREES



          SCF CALCULATIONS        =          1

          WALL-CLOCK TIME         =          2 MINUTES AND 11.914 SECONDS
          COMPUTATION TIME        =          2 MINUTES AND 11.901 SECONDS




   ATOM   CHEMICAL          X               Y               Z
  NUMBER   SYMBOL      (ANGSTROMS)     (ANGSTROMS)     (ANGSTROMS)

     1       N         18.67404150      2.20340511      2.44538515   
     2       N         19.16951583      1.70802126      3.20978150   
     3       N         13.51414559      8.86519698      3.94728112   
     4       N         13.01869388      8.10082326      3.45182941   
     5       N          3.20996247     19.16951583      1.70808912   
     6       N          2.44552088     18.67401888      2.20338248   
     7       N          9.10717703     20.17580174      7.36334626   
     8       N          8.10080064      3.45196514     13.01867126   
     9       N          8.86521961      3.94737161     13.51416821   
    10       N         20.17584698      7.36336888      9.10717703   
    11       N          3.94728112     13.51410035      8.86517436   
    12       N          3.45182941     13.01864864      8.10080064   
    13       N         19.41145064      7.85882059      9.60260612   
    14       N         20.91327874     14.52049936     14.76247941   
    15       N          9.60260612     19.41142802      7.85882059   
    16       N         14.76252465     20.91327874     14.52052198   
    17       N         15.25797636     20.41780441     13.75612564   
    18       N          2.20340511      2.44536253     18.67386053   
    19       N          1.70788553      3.20984936     19.16935748   
    20       N          7.36336888      9.10708655     20.17584698   
    21       N         14.52049936     14.76250203     20.91325612   
    22       N          7.85868486      9.60260612     19.41140539   
    23       N         20.41782703     13.75612564     15.25793112   
    24       N         13.75612564     15.25795374     20.41778179   
    25       C         14.19986506      6.20680967      1.98635373   
    26       C         14.87361786      5.01220144      2.20797461   
    27       C         14.50403106      5.32851508      4.54789926   
    28       C         14.88339026      7.16029747      6.63887650   
    29       C         14.89135296      4.82806406      5.79589376   
    30       C         14.08829681      6.64217921      4.41029389   
    31       C         13.80021455      7.02454705      3.07909825   
    32       C         15.06332008      5.72963597      6.83251483   
    33       C         19.85519006      3.66903913      0.55146205   
    34       C         20.63499151      2.88921506      5.10390819   
    35       C         20.41337063      3.56299048      6.29853904   
    36       C         19.25525056      0.32778264      3.17173247   
    37       C         17.29382550      2.28916245      2.48345680   
    38       C         15.78880779      3.75264746      5.58101403   
    39       C         18.07346861      3.19342630      5.98208968   
    40       C         15.98240088      3.57262715      4.15035253   
    41       C         16.82545148      3.58074820      6.48251808   
    42       C         19.74389326      1.24503111      0.98687683   
    43       C         18.21105135      2.77760156      4.66844817   
    44       C         19.82428936      0.17676284      1.90141075   
    45       C         17.14276046      2.85808815      3.75382376   
    46       C         15.10433250      4.54493587      3.49349784   
    47       C         19.12782478      3.79370512      6.76571413   
    48       C         19.45567528      2.57627199      1.36915418   
    49       C         19.54226961      2.48956455      4.28605771   
    50       C          1.98628587     14.19986506      6.20678705   
    51       C          2.20790674     14.87364048      5.01215620   
    52       C          4.54785402     14.50394057      5.32846984   
    53       C          6.63883126     14.88336764      7.16029747   
    54       C          5.79587114     14.89130771      4.82806406   
    55       C          4.41027127     14.08831943      6.64217921   
    56       C          3.07907563     13.80019193      7.02454705   
    57       C          6.83249221     15.06329746      5.72963597   
    58       C         14.16891912      7.55684886      5.47849430   
    59       C         14.97971175     10.75918795      2.76608732   
    60       C         14.75806826     11.95379618      2.09233452   
    61       C          9.21817975      7.86323174      0.64314618   
    62       C         11.63847788      8.13884966      3.36600420   
    63       C         13.59992556      8.82714796      5.32749712   
    64       C         11.38493835     13.21330492      1.17718983   
    65       C         10.13346017     11.23636165      1.90267754   
    66       C         12.41809836     11.63752778      2.46205705   
    67       C          8.84859295     10.20320164      0.32683254   
    68       C         10.32705325      9.80570015      2.08262998   
    69       C         12.81559985     13.39318950      0.98352888   
    70       C         10.48338906     13.38531729      0.14056876   
    71       C         11.17008124     12.13793356      2.07471253   
    72       C          9.23598271     11.45119614      0.82726094   
    73       C         12.55574897     10.32381841      2.87761033   
    74       C         11.48750332      9.40917139      2.79701064   
    75       C         13.47252240     12.42103913      1.86166513   
    76       C          9.44889439      9.14877760      1.11041175   
    77       C         13.88694461      9.94140533      3.16571521   
    78       C         15.85560849      7.81722002      7.51696750   
    79       C          5.10379508     20.63503675      2.88921506   
    80       C          0.55150729     19.85507695      3.66894865   
    81       C          6.29844856     20.41341588      3.56289999   
    82       C          2.48361515     17.29380288      2.28925294   
    83       C          3.17198131     19.25563512      0.32791836   
    84       C          5.58103665     15.78880779      3.75264746   
    85       C          5.98227065     18.07340074      3.19320009   
    86       C          4.15039777     15.98242350      3.57276288   
    87       C          6.48265380     16.82538362      3.58058985   
    88       C          4.66849341     18.21102873      2.77782778   
    89       C          0.98708043     19.74396113      1.24500849   
    90       C          3.75384639     17.14282832      2.85840485   
    91       C          1.90163696     19.82456082      0.17685332   
    92       C          6.76573675     19.12784740      3.79354677   
    93       C          3.49345260     15.10433250      4.54491325   
    94       C          4.28605771     19.54220175      2.48985863   
    95       C          1.36926729     19.45560741      2.57618151   
    96       C          7.55793468     17.04026335      4.47818041   
    97       C          9.02139706     20.13773009      5.98313026   
    98       C          8.11735943     16.63909722      6.76275074   
    99       C          7.73781926     18.47094747      4.67179612   
   100       C          7.72996967     16.13866882      5.51475624   
   101       C          8.53295795     17.95278397      6.90040135   
   102       C          8.45226777     18.86745361      5.83220094   
   103       C         21.97810858     20.52882975      3.44741826   
   104       C         20.71853197     21.44401968      0.07410738   
   105       C         22.29467105     20.15949178      1.10738050   
   106       C         20.53857953     21.63761277      1.50485936   
   107       C         21.51088825     20.75956701      2.16180453   
   108       C          6.20683229      1.98630849     14.20002341   
   109       C          5.01213358      2.20777102     14.87373096   
   110       C          5.32842459      4.54780877     14.50405368   
   111       C          7.16016174      6.63898961     14.88316405   
   112       C          4.82792833      5.79584852     14.89137558   
   113       C          6.64217921      4.41022603     14.08850040   
   114       C          7.02459229      3.07903039     13.80032766   
   115       C          5.72943238      6.83256007     15.06322959   
   116       C          7.55678099      5.47851692     14.16885125   
   117       C         10.75927843      2.76610994     14.97959865   
   118       C          7.86323174      0.64319142      9.21838334   
   119       C         11.95393191      2.09240239     14.75806826   
   120       C          8.82717058      5.32758761     13.59994818   
   121       C          8.13880442      3.36625303     11.63845526   
   122       C         13.21328230      1.17709935     11.38496097   
   123       C         11.23631641      1.90263230     10.13348279   
   124       C         10.20320164      0.32683254      8.84863819   
   125       C         11.63743730      2.46192132     12.41809836   
   126       C         13.39325736      0.98352888     12.81559985   
   127       C          9.80565491      2.08262998     10.32707588   
   128       C         12.13786570      2.07457680     11.17010386   
   129       C         11.45119614      0.82723832      9.23600533   
   130       C         13.38529467      0.14050089     10.48338906   
   131       C         10.32372792      2.87758771     12.55570373   
   132       C          9.40908090      2.79712374     11.48745808   
   133       C          9.14880022      1.11038913      9.44900750   
   134       C         12.42108437      1.86168775     13.47249978   
   135       C          9.94138271      3.16566996     13.88689937   
   136       C         17.04026335      4.47818041      7.55795730   
   137       C         20.13779796      5.98315288      9.02132920   
   138       C         16.63916508      6.76279598      8.11729156   
   139       C         18.47092485      4.67175088      7.73795498   
   140       C         16.13871406      5.51477886      7.73001491   
   141       C         17.95282921      6.90037873      8.53295795   
   142       C         18.86745361      5.83215570      8.45238088   
   143       C          5.47844906     14.16896436      7.55682624   
   144       C          2.76608732     14.97959865     10.75925581   
   145       C          2.09233452     14.75809088     11.95388667   
   146       C          0.64316880      9.21831548      7.86325437   
   147       C          3.36604944     11.63845526      8.13880442   
   148       C          5.32751974     13.59992556      8.82710272   
   149       C          1.90270016     10.13348279     11.23636165   
   150       C          1.17723507     11.38496097     13.21332754   
   151       C          2.46192132     12.41814361     11.63745992   
   152       C          0.32683254      8.84872868     10.20317902   
   153       C          0.98357412     12.81557723     13.39327998   
   154       C          2.08260736     10.32712112      9.80570015   
   155       C          0.82726094      9.23600533     11.45121876   
   156       C          0.14052352     10.48338906     13.38531729   
   157       C          2.07462204     11.17010386     12.13793356   
   158       C          2.87756509     12.55574897     10.32377317   
   159       C          2.79703326     11.48752594      9.40912614   
   160       C          1.86161988     13.47252240     12.42103913   
   161       C          1.11041175      9.44905274      9.14877760   
   162       C          3.16573783     13.88692199      9.94140533   
   163       C         17.51741443      9.32431889      8.42141232   
   164       C         18.95230611     11.86211205     14.07675994   
   165       C         22.06986057      8.54451744      7.64170135   
   166       C         16.32278358      9.10278850      7.74763690   
   167       C         19.17388174     10.66748120     13.40298452   
   168       C         22.29349474     14.48247296     14.67660895   
   169       C         19.44949966      7.94464580     10.98284474   
   170       C         22.54703427      9.40799508     12.48781721   
   171       C         21.51387426     10.98384008     13.77259394   
   172       C         21.11635015      9.22806526     12.29415626   
   173       C         21.37622365     12.29752683     14.18823771   
   174       C         21.63444579      8.43303967     10.06561889   
   175       C         22.44444668     13.21215124     14.10763802   
   176       C         20.71979876      8.51366198     11.13379668   
   177       C         20.45942760     10.20023825     13.17224726   
   178       C         18.33519705      8.23157437      8.82106283   
   179       C         20.04507325     12.67989467     14.47636521   
   180       C         21.25210057      8.14491217      8.73442325   
   181       C          7.51699013     15.85556325      7.81719740   
   182       C          7.64167873     22.06986057      8.54458530   
   183       C          8.42141232     17.51743705      9.32434151   
   184       C         14.07669208     18.95228349     11.86213467   
   185       C          7.74768214     16.32278358      9.10276588   
   186       C         13.40293928     19.17390437     10.66752644   
   187       C         10.98282212     19.44945442      7.94466842   
   188       C         14.67669944     22.29349474     14.48247296   
   189       C         12.48781721     22.54698903      9.40797246   
   190       C         13.77266181     21.51380639     10.98379484   
   191       C         12.29420150     21.11635015      9.22799739   
   192       C         10.06561889     21.63446841      8.43292656   
   193       C         14.18835082     21.37622365     12.29748159   
   194       C         11.13381930     20.71982139      8.51354888   
   195       C         14.10770588     22.44442406     13.21212861   
   196       C         13.17226988     20.45942760     10.20023825   
   197       C          8.73442325     21.25210057      8.14482169   
   198       C          8.82104021     18.33519705      8.23157437   
   199       C         14.47641045     20.04502801     12.67991729   
   200       C         19.73206232     16.41451295     13.29700373   
   201       C         19.05830952     17.60914380     13.51857937   
   202       C         16.63819236     20.33197920     13.79417466   
   203       C         18.82761750     18.07636413     14.80412522   
   204       C         20.13171283     15.59673033     14.38972563   
   205       C         16.78909906     19.76294040     15.06447376   
   206       C          3.66894865      0.55123584     19.85523530   
   207       C          2.88932816      5.10395343     20.63481054   
   208       C          3.56319407      6.29860691     20.41359685   
   209       C          0.32769215      3.17161937     19.25482076   
   210       C          2.28920770      2.48356991     17.29355405   
   211       C          3.75257959      5.58101403     15.78883041   
   212       C          3.19362989      5.98206706     18.07358171   
   213       C          3.57233307      4.15037515     15.98212942   
   214       C          3.58079344      6.48260856     16.82547411   
   215       C          1.24525732      0.98712567     19.74391588   
   216       C          2.77748846      4.66853865     18.21096087   
   217       C          0.17687594      1.90147861     19.82426674   
   218       C          2.85790718      3.75400474     17.14257949   
   219       C          4.54475490      3.49331687     15.10426463   
   220       C          3.79384084      6.76571413     19.12798313   
   221       C          2.57640772      1.36924467     19.45551693   
   222       C          2.48938358      4.28617082     19.54226961   
   223       C          7.81712953      7.51689964     15.85554063   
   224       C         20.52894286      3.44746350     21.97810858   
   225       C         21.44399706      0.07428835     20.71841887   
   226       C         20.15942392      1.10753885     22.29442222   
   227       C         21.63761277      1.50494985     20.53848905   
   228       C         20.75974798      2.16194026     21.51088825   
   229       C          4.47815779      7.55809303     17.04035383   
   230       C          5.98317550      9.02110298     20.13791106   
   231       C          6.76281861      8.11722370     16.63911984   
   232       C          4.67193185      7.73790974     18.47103795   
   233       C          5.51473362      7.72996967     16.13871406   
   234       C          6.90044659      8.53268650     17.95285183   
   235       C          5.83238192      8.45215467     18.86756672   
   236       C          8.54447219      7.64163349     22.06981533   
   237       C         11.86215729     14.07671470     18.95223825   
   238       C          9.32429627      8.42154805     17.51736919   
   239       C         10.66754906     13.40296190     19.17392699   
   240       C          9.10263015      7.74775001     16.32278358   
   241       C          7.94457794     10.98282212     19.44949966   
   242       C         14.48242772     14.67665420     22.29347212   
   243       C          9.40804032     12.48779459     22.54698903   
   244       C         10.98384008     13.77268443     21.51389688   
   245       C          9.22815574     12.29415626     21.11632753   
   246       C          8.43301705     10.06557365     21.63442317   
   247       C         12.29752683     14.18828295     21.37622365   
   248       C          8.51366198     11.13381930     20.71979876   
   249       C         13.21212861     14.10763802     22.44444668   
   250       C         10.20035135     13.17229250     20.45947284   
   251       C          8.14500266      8.73440063     21.25201009   
   252       C         12.67991729     14.47636521     20.04500539   
   253       C          8.23157437      8.82099496     18.33517443   
   254       C         16.41453557     13.29700373     19.73208494   
   255       C         17.60914380     13.51857937     19.05833214   
   256       C         20.33197920     13.79415204     16.63814712   
   257       C         18.07638675     14.80410260     18.82761750   
   258       C         15.59673033     14.38974825     20.13171283   
   259       C         19.76298564     15.06447376     16.78909906   
   260       C          3.44732777     21.97799547     20.52921431   
   261       C          0.07424311     20.71859984     21.44399706   
   262       C          1.10753885     22.29469367     20.15971800   
   263       C          1.50490460     20.53876050     21.63777112   
   264       C          2.16178191     21.51097873     20.75992895   
   265       C         13.29698111     19.73206232     16.41453557   
   266       C         13.51853412     19.05830952     17.60916642   
   267       C         13.79415204     16.63816974     20.33193395   
   268       C         14.80407998     18.82764013     18.07640937   
   269       C         14.38972563     20.13169021     15.59673033   
   270       C         15.06445114     16.78909906     19.76296302   
   271       C         18.14314221     18.86862992     16.89170927   
   272       C         16.89166403     18.14314221     18.86865254   
   273       C         18.86862992     16.89168665     18.14314221   
   274       C         17.29283016     15.85850402     19.42796419   
   275       C         19.42796419     17.29280754     15.85852664   
   276       C         15.85850402     19.42798681     17.29283016   
   277       C         15.46100253     17.94952650     19.04858236   
   278       C         19.04853712     15.46102515     17.94948126   
   279       C         17.94950388     19.04853712     15.46104777   
   280       C         21.79401644     20.54670058     22.48070862   
   281       C         19.04064229     17.79323594     17.10654376   
   282       C         22.48068600     21.79401644     20.54665533   
   283       C         17.10652114     19.04064229     17.79328118   
   284       C         20.54661009     22.48068600     21.79390333   
   285       C         17.79323594     17.10652114     19.04064229   
   286       C         15.97912079     15.72092127     19.84358533   
   287       C         19.84358533     15.97912079     15.72089865   
   288       C         15.72089865     19.84356271     15.97912079   
   289       H         13.99012036      6.54687568      0.97205988   
   290       H          9.59898671      7.01131359      1.20682373   
   291       H         10.92364480      7.32577228      3.68550744   
   292       H         15.25422123      4.44852389      1.35603383   
   293       H         21.64928536      2.67949298      4.76379695   
   294       H         19.64551323      4.68337822      0.89143757   
   295       H         21.26526617      3.94368434      6.86232970   
   296       H         16.57878883      1.96986280      1.67044728   
   297       H          0.97208250     13.99009774      6.54696616   
   298       H          1.20680111      9.59887361      7.01117786   
   299       H          3.68548482     10.92357694      7.32574966   
   300       H         13.28044494      9.64022534      6.04239806   
   301       H         21.72968146      8.33481799      6.62745275   
   302       H         15.99400560     10.41905408      2.97587726   
   303       H         15.61003166     12.51751898      1.71173115   
   304       H         15.29548248     14.99613482      0.38705044   
   305       H         15.75906078      9.95479714      7.36705615   
   306       H          1.35594334     15.25424385      4.44843340   
   307       H          4.76348025     21.64926274      2.67926677   
   308       H          0.89195786     19.64526439      4.68315201   
   309       H          6.86212611     21.26535666      3.94359385   
   310       H          1.67044728     16.57899242      1.96984018   
   311       H          9.34080982     20.95087534      5.26831980   
   312       H         18.93576994     22.23440791      3.98494559   
   313       H         21.41454413     20.90963671      4.29942690   
   314       H          6.54694354      0.97208250     13.98998464   
   315       H          7.01131359      1.20698208      9.59896409   
   316       H          7.32574966      3.68543957     10.92341859   
   317       H          9.64042894      6.04223972     13.28033183   
   318       H         20.95083010      5.26827456      9.34083244   
   319       H          6.04235282     13.28044494      9.64024797   
   320       H         17.85754830     10.33859012      8.63117964   
   321       H         17.93805750     12.20224592     14.28650464   
   322       H         18.32191834     10.10378102     13.02240377   
   323       H         18.63642228      7.62514256     11.69770044   
   324       H          2.97580939     15.99391512     10.41912195   
   325       H          6.62743012     21.72972670      8.33479536   
   326       H          1.71168591     15.61007690     12.51751898   
   327       H          0.38709569     15.29548248     14.99615744   
   328       H          7.36705615     15.75912865      9.95475190   
   329       H         14.28654988     17.93803488     12.20224592   
   330       H          8.63122488     17.85761616     10.33859012   
   331       H         13.02244901     18.32194096     10.10378102   
   332       H         11.69776831     18.63649014      7.62516518   
   333       H         19.94185226     16.07435646     12.28273250   
   334       H         18.67772877     18.17282135     12.66657072   
   335       H         17.35302544     20.65150506     12.98105203   
   336       H          4.44868224      1.35551354     15.25415337   
   337       H          2.67985493      4.76440772     21.64926274   
   338       H          4.68342347      0.89087204     19.64582993   
   339       H          3.94352599      6.86235233     21.26576384   
   340       H          1.96981756      1.67035679     16.57865310   
   341       H          8.33468226      6.62740750     21.72952311   
   342       H         10.41921243      2.97571891     15.99391512   
   343       H         12.51751898      1.71166329     15.61007690   
   344       H         14.99613482      0.38709569     15.29555034   
   345       H          9.95457093      7.36703353     15.75919651   
   346       H         22.23388762      3.98480986     18.93608664   
   347       H         20.90947837      4.29969835     21.41470248   
   348       H          5.26834242      9.34096817     20.95089797   
   349       H         10.33838653      8.63131536     17.85795548   
   350       H         12.20215543     14.28650464     17.93794440   
   351       H         10.10371316     13.02240377     18.32203145   
   352       H          7.62518780     11.69779093     18.63646752   
   353       H         16.07435646     12.28275512     19.94182964   
   354       H         18.17284398     12.66659334     18.67770615   
   355       H         20.65148244     12.98114252     17.35304806   
   356       H          3.98480986     18.93556635     22.23436266   
   357       H          4.29922331     21.41409170     20.90961409   
   358       H         12.28273250     19.94182964     16.07437908   
   359       H         12.66654810     18.67766091     18.17286660   
   360       H         12.98109728     17.35302544     20.65152768   
   361      Tv         22.62130000      0.00000000      0.00000000   
   362      Tv          0.00000000     22.62130000      0.00000000   
   363      Tv          0.00000000      0.00000000     22.62130000   

                             CARTESIAN COORDINATES

   1    N       18.674041499     2.203405105     2.445385151
   2    N       19.169515833     1.708021257     3.209781500
   3    N       13.514145590     8.865196985     3.947281122
   4    N       13.018693878     8.100823258     3.451829410
   5    N        3.209962470    19.169515833     1.708089120
   6    N        2.445520879    18.674018878     2.203382484
   7    N        9.107177031    20.175801742     7.363346256
   8    N        8.100800637     3.451965137    13.018671257
   9    N        8.865219606     3.947371607    13.514168212
  10    N       20.175846985     7.363368878     9.107177031
  11    N        3.947281122    13.514100348     8.865174364
  12    N        3.451829410    13.018648635     8.100800637
  13    N       19.411450636     7.858820590     9.602606122
  14    N       20.913278744    14.520499364    14.762479410
  15    N        9.602606122    19.411428015     7.858820590
  16    N       14.762524652    20.913278744    14.520521985
  17    N       15.257976365    20.417804410    13.756125637
  18    N        2.203405105     2.445362530    18.673860529
  19    N        1.707885529     3.209849364    19.169357484
  20    N        7.363368878     9.107086546    20.175846985
  21    N       14.520499364    14.762502031    20.913256122
  22    N        7.858684863     9.602606122    19.411405394
  23    N       20.417827031    13.756125637    15.257931122
  24    N       13.756125637    15.257953743    20.417781788
  25    C       14.199865057     6.206809673     1.986353732
  26    C       14.873617857     5.012201441     2.207974608
  27    C       14.504031057     5.328515079     4.547899259
  28    C       14.883390258     7.160297468     6.638876503
  29    C       14.891352956     4.828064059     5.795893758
  30    C       14.088296806     6.642179213     4.410293891
  31    C       13.800214550     7.024547046     3.079098249
  32    C       15.063320078     5.729635971     6.832514831
  33    C       19.855190057     3.669039132     0.551462051
  34    C       20.634991511     2.889215057     5.103908191
  35    C       20.413370635     3.562990478     6.298539044
  36    C       19.255250560     0.327782637     3.171732473
  37    C       17.293825501     2.289162453     2.483456799
  38    C       15.788807791     3.752647457     5.581014030
  39    C       18.073468605     3.193426300     5.982089679
  40    C       15.982400876     3.572627152     4.150352532
  41    C       16.825451484     3.580748198     6.482518077
  42    C       19.743893261     1.245031109     0.986876834
  43    C       18.211051352     2.777601563     4.668448166
  44    C       19.824289361     0.176762838     1.901410750
  45    C       17.142760459     2.858088149     3.753823765
  46    C       15.104332495     4.544935868     3.493497844
  47    C       19.127824777     3.793705116     6.765714132
  48    C       19.455675278     2.576271993     1.369154182
  49    C       19.542269614     2.489564550     4.286057711
  50    C        1.986285868    14.199865057     6.206787051
  51    C        2.207906744    14.873640478     5.012156198
  52    C        4.547854016    14.503940572     5.328469836
  53    C        6.638831260    14.883367637     7.160297468
  54    C        5.795871137    14.891307713     4.828064059
  55    C        4.410271269    14.088319427     6.642179213
  56    C        3.079075628    13.800191929     7.024547046
  57    C        6.832492209    15.063297457     5.729635971
  58    C       14.168919119     7.556848857     5.478494298
  59    C       14.979711754    10.759187949     2.766087321
  60    C       14.758068256    11.953796180     2.092334522
  61    C        9.218179750     7.863231744     0.643146180
  62    C       11.638477880     8.138849663     3.366004197
  63    C       13.599925560     8.827147958     5.327497120
  64    C       11.384938349    13.213304922     1.177189831
  65    C       10.133460169    11.236361651     1.902677543
  66    C       12.418098363    11.637527785     2.462057049
  67    C        8.848592951    10.203201637     0.326832542
  68    C       10.327053255     9.805700154     2.082629985
  69    C       12.815599846    13.393189499     0.983528881
  70    C       10.483389059    13.385317287     0.140568758
  71    C       11.170081242    12.137933562     2.074712530
  72    C        9.235982713    11.451196137     0.827260941
  73    C       12.555748973    10.323818409     2.877610330
[...]
  293          H           0.162314        0.8377     0.83769
  294          H           0.162318        0.8377     0.83768
  295          H           0.171363        0.8286     0.82864
  296          H           0.220618        0.7794     0.77938
  297          H           0.162304        0.8377     0.83770
  298          H           0.171358        0.8286     0.82864
  299          H           0.220617        0.7794     0.77938
  300          H           0.220620        0.7794     0.77938
  301          H           0.162309        0.8377     0.83769
  302          H           0.162318        0.8377     0.83768
  303          H           0.171359        0.8286     0.82864
  304          H           0.220611        0.7794     0.77939
  305          H           0.171367        0.8286     0.82863
  306          H           0.171355        0.8286     0.82864
  307          H           0.162332        0.8377     0.83767
  308          H           0.162323        0.8377     0.83768
  309          H           0.171351        0.8286     0.82865
  310          H           0.220608        0.7794     0.77939
  311          H           0.220608        0.7794     0.77939
  312          H           0.220599        0.7794     0.77940
  313          H           0.171358        0.8286     0.82864
  314          H           0.162309        0.8377     0.83769
  315          H           0.171357        0.8286     0.82864
  316          H           0.220620        0.7794     0.77938
  317          H           0.220624        0.7794     0.77938
  318          H           0.220609        0.7794     0.77939
  319          H           0.220617        0.7794     0.77938
  320          H           0.162312        0.8377     0.83769
  321          H           0.162306        0.8377     0.83769
  322          H           0.171352        0.8286     0.82865
  323          H           0.220609        0.7794     0.77939
  324          H           0.162313        0.8377     0.83769
  325          H           0.162305        0.8377     0.83769
  326          H           0.171361        0.8286     0.82864
  327          H           0.220611        0.7794     0.77939
  328          H           0.171354        0.8286     0.82865
  329          H           0.162313        0.8377     0.83769
  330          H           0.162311        0.8377     0.83769
  331          H           0.171355        0.8286     0.82864
  332          H           0.220611        0.7794     0.77939
  333          H           0.162313        0.8377     0.83769
  334          H           0.171358        0.8286     0.82864
  335          H           0.220618        0.7794     0.77938
  336          H           0.171358        0.8286     0.82864
  337          H           0.162287        0.8377     0.83771
  338          H           0.162299        0.8377     0.83770
  339          H           0.171391        0.8286     0.82861
  340          H           0.220632        0.7794     0.77937
  341          H           0.162322        0.8377     0.83768
  342          H           0.162308        0.8377     0.83769
  343          H           0.171364        0.8286     0.82864
  344          H           0.220618        0.7794     0.77938
  345          H           0.171345        0.8287     0.82866
  346          H           0.220620        0.7794     0.77938
  347          H           0.171342        0.8287     0.82866
  348          H           0.220625        0.7794     0.77938
  349          H           0.162316        0.8377     0.83768
  350          H           0.162317        0.8377     0.83768
  351          H           0.171357        0.8286     0.82864
  352          H           0.220611        0.7794     0.77939
  353          H           0.162309        0.8377     0.83769
  354          H           0.171363        0.8286     0.82864
  355          H           0.220610        0.7794     0.77939
  356          H           0.220606        0.7794     0.77939
  357          H           0.171366        0.8286     0.82863
  358          H           0.162305        0.8377     0.83769
  359          H           0.171364        0.8286     0.82864
  360          H           0.220618        0.7794     0.77938


          ATOMIC ORBITAL ELECTRON POPULATIONS

     Atom    s        px        py        pz   
    1  N   1.39043   1.06540   1.27110   1.10280
    2  N   1.39043   1.27114   1.06544   1.10282
    3  N   1.39041   1.27110   1.10282   1.06541
    4  N   1.39042   1.06543   1.10282   1.27111
    5  N   1.39039   1.10279   1.27115   1.06544
    6  N   1.39043   1.10280   1.06542   1.27116
    7  N   1.39042   1.27113   1.10283   1.06542
    8  N   1.39045   1.10283   1.27110   1.06541
    9  N   1.39045   1.10279   1.06544   1.27109
   10  N   1.39042   1.10280   1.06542   1.27111
   11  N   1.39043   1.06543   1.27112   1.10284
   12  N   1.39041   1.27108   1.06542   1.10279
   13  N   1.39043   1.10283   1.27115   1.06543
   14  N   1.39042   1.06543   1.10282   1.27111
   15  N   1.39041   1.06542   1.10282   1.27110
   16  N   1.39043   1.27108   1.06542   1.10281
   17  N   1.39043   1.06543   1.27113   1.10284
   18  N   1.39051   1.27109   1.10280   1.06544
   19  N   1.39048   1.06542   1.10280   1.27116
   20  N   1.39042   1.06545   1.27114   1.10281
   21  N   1.39042   1.10282   1.27110   1.06542
   22  N   1.39043   1.27113   1.06541   1.10281
   23  N   1.39042   1.27110   1.10282   1.06542
   24  N   1.39043   1.10283   1.06543   1.27111
   25  C   1.08534   0.96014   0.96486   1.04552
   26  C   1.07254   1.04828   1.01602   1.05756
   27  C   1.06369   0.96708   0.96381   0.99176
   28  C   1.05055   1.13142   0.98331   1.03569
   29  C   1.04432   1.09874   1.01913   0.98651
   30  C   1.05633   1.10201   1.00390   0.96553
   31  C   1.06182   1.08733   0.94486   0.99163
   32  C   1.07323   0.90221   0.94781   0.93054
   33  C   1.08534   0.96015   1.04552   0.96486
   34  C   1.08535   1.04552   0.96014   0.96484
   35  C   1.07256   1.05755   1.04825   1.01601
   36  C   1.09062   1.24152   0.85857   1.14672
   37  C   1.09061   0.85864   1.24150   1.14668
   38  C   1.07322   0.93055   0.90221   0.94781
   39  C   1.06369   0.99176   0.96708   0.96381
   40  C   1.05056   1.03572   1.13139   0.98331
   41  C   1.04431   0.98651   1.09875   1.01914
   42  C   1.05633   1.10197   0.96553   1.00391
   43  C   1.05634   0.96552   1.10199   1.00390
   44  C   1.06503   0.89279   0.95118   0.93570
   45  C   1.06506   0.95116   0.89276   0.93568
   46  C   1.07721   0.91403   0.93734   0.96036
   47  C   1.07719   0.96037   0.91405   0.93736
   48  C   1.06184   1.08730   0.99162   0.94489
   49  C   1.06184   0.99162   1.08732   0.94485
   50  C   1.08535   1.04550   0.96012   0.96485
   51  C   1.07255   1.05755   1.04829   1.01602
   52  C   1.06370   0.99175   0.96708   0.96380
   53  C   1.05055   1.03568   1.13145   0.98332
   54  C   1.04433   0.98651   1.09875   1.01914
   55  C   1.05632   0.96553   1.10201   1.00390
   56  C   1.06184   0.99164   1.08735   0.94488
   57  C   1.07323   0.93054   0.90220   0.94781
   58  C   1.06505   0.89277   0.93569   0.95117
   59  C   1.08536   1.04551   0.96484   0.96011
   60  C   1.07255   1.05755   1.01603   1.04830
   61  C   1.07255   1.04828   1.05755   1.01603
   62  C   1.09062   0.85863   1.14673   1.24146
   63  C   1.09062   1.24146   1.14673   0.85863
   64  C   1.07323   0.94780   0.90219   0.93053
   65  C   1.07323   0.93053   0.94781   0.90219
   66  C   1.06370   0.99175   0.96381   0.96709
   67  C   1.06370   0.96709   0.99175   0.96381
   68  C   1.05056   1.03567   0.98331   1.13145
   69  C   1.05055   0.98332   1.13145   1.03569
   70  C   1.04431   1.01915   1.09874   0.98651
   71  C   1.04432   0.98651   1.01914   1.09874
   72  C   1.04432   1.09874   0.98651   1.01913
   73  C   1.05633   0.96552   1.00390   1.10200
   74  C   1.06506   0.95117   0.93569   0.89276
   75  C   1.07721   0.96035   0.93733   0.91401
   76  C   1.07722   0.91401   0.96035   0.93733
   77  C   1.06183   0.99163   0.94488   1.08735
   78  C   1.07721   0.93734   0.96035   0.91403
   79  C   1.08536   0.96484   1.04552   0.96013
   80  C   1.08536   0.96484   0.96013   1.04552
   81  C   1.07255   1.01602   1.05754   1.04830
   82  C   1.09061   1.14676   0.85863   1.24141
   83  C   1.09061   1.14681   1.24139   0.85864
   84  C   1.07323   0.94780   0.93054   0.90219
   85  C   1.06369   0.96380   0.99175   0.96709
   86  C   1.05054   0.98333   1.03568   1.13146
   87  C   1.04432   1.01916   0.98651   1.09873
   88  C   1.05632   1.00389   0.96553   1.10201
   89  C   1.05630   1.00392   1.10201   0.96556
   90  C   1.06504   0.93569   0.95117   0.89276
   91  C   1.06501   0.93571   0.89279   0.95119
   92  C   1.07721   0.93734   0.96035   0.91402
   93  C   1.07720   0.96035   0.91402   0.93734
   94  C   1.06183   0.94489   0.99163   1.08733
   95  C   1.06184   0.94490   1.08731   0.99163
   96  C   1.07323   0.90219   0.94781   0.93054
   97  C   1.09062   1.24144   1.14675   0.85863
   98  C   1.06370   0.96708   0.96380   0.99175
   99  C   1.05055   1.13147   0.98331   1.03567
  100  C   1.04431   1.09875   1.01914   0.98652
  101  C   1.05632   1.10200   1.00390   0.96553
  102  C   1.06505   0.89276   0.93569   0.95117
  103  C   1.07258   1.01601   1.04827   1.05753
  104  C   1.07322   0.90224   0.93055   0.94781
  105  C   1.06370   0.96381   0.96708   0.99175
  106  C   1.05057   1.13142   1.03567   0.98329
  107  C   1.07724   0.93733   0.91401   0.96034
  108  C   1.08535   0.96485   1.04553   0.96013
  109  C   1.07256   1.01600   1.05753   1.04831
  110  C   1.06373   0.96379   0.99174   0.96709
  111  C   1.05058   0.98329   1.03568   1.13138
  112  C   1.04432   1.01915   0.98648   1.09871
  113  C   1.05634   1.00389   0.96552   1.10200
  114  C   1.06184   0.94490   0.99164   1.08729
  115  C   1.07324   0.94780   0.93055   0.90223
  116  C   1.06506   0.93569   0.95119   0.89279
  117  C   1.08534   0.96484   0.96015   1.04553
  118  C   1.07255   1.05754   1.01602   1.04830
  119  C   1.07256   1.01602   1.04827   1.05754
  120  C   1.09065   1.14668   0.85856   1.24149
  121  C   1.09059   1.14673   1.24153   0.85862
  122  C   1.07322   0.90221   0.93055   0.94781
  123  C   1.07323   0.94780   0.90219   0.93054
  124  C   1.06369   0.99175   0.96381   0.96710
  125  C   1.06370   0.96380   0.96709   0.99175
  126  C   1.05055   1.13142   1.03567   0.98332
  127  C   1.05055   0.98332   1.13144   1.03573
  128  C   1.04432   1.01914   1.09875   0.98651
  129  C   1.04432   0.98651   1.01914   1.09873
  130  C   1.04432   1.09873   0.98651   1.01913
  131  C   1.05633   1.00390   1.10201   0.96553
  132  C   1.06506   0.93567   0.89274   0.95116
  133  C   1.07720   0.96035   0.93734   0.91402
  134  C   1.07721   0.93734   0.91402   0.96035
  135  C   1.06183   0.94487   1.08732   0.99164
  136  C   1.07322   0.94781   0.93055   0.90221
  137  C   1.09062   1.14672   0.85864   1.24143
  138  C   1.06369   0.96381   0.99175   0.96709
  139  C   1.05055   0.98331   1.03568   1.13140
  140  C   1.04432   1.01913   0.98650   1.09873
  141  C   1.05632   1.00390   0.96553   1.10200
  142  C   1.06504   0.93570   0.95117   0.89279
  143  C   1.06503   0.95118   0.89278   0.93570
  144  C   1.08534   0.96013   1.04554   0.96485
  145  C   1.07255   1.04827   1.05754   1.01602
  146  C   1.07255   1.01602   1.04827   1.05755
  147  C   1.09061   1.24145   0.85865   1.14672
  148  C   1.09062   0.85860   1.24147   1.14674
  149  C   1.07324   0.90219   0.93054   0.94780
  150  C   1.07322   0.93053   0.94781   0.90220
  151  C   1.06369   0.96710   0.99175   0.96381
  152  C   1.06370   0.96381   0.96707   0.99175
  153  C   1.05055   1.03569   0.98332   1.13144
  154  C   1.05055   1.13143   1.03569   0.98331
  155  C   1.04432   1.01913   1.09875   0.98651
  156  C   1.04432   0.98651   1.01913   1.09875
  157  C   1.04431   1.09876   0.98650   1.01913
  158  C   1.05633   1.10199   0.96553   1.00390
  159  C   1.06505   0.89277   0.95117   0.93569
  160  C   1.07720   0.91402   0.96035   0.93734
  161  C   1.07720   0.93735   0.91404   0.96036
  162  C   1.06182   1.08733   0.99164   0.94488
  163  C   1.08535   0.96486   1.04552   0.96013
  164  C   1.08535   1.04551   0.96485   0.96012
  165  C   1.08534   0.96487   0.96015   1.04553
  166  C   1.07256   1.01602   1.05754   1.04828
  167  C   1.07255   1.05755   1.01602   1.04830
  168  C   1.09062   0.85863   1.14674   1.24145
  169  C   1.09062   1.14673   1.24145   0.85861
  170  C   1.07323   0.94781   0.90220   0.93054
  171  C   1.06369   0.99175   0.96380   0.96708
  172  C   1.05054   0.98332   1.13144   1.03570
  173  C   1.05631   0.96554   1.00390   1.10204
  174  C   1.05632   1.00390   1.10200   0.96553
  175  C   1.06504   0.95117   0.93569   0.89276
  176  C   1.06503   0.93570   0.89277   0.95118
  177  C   1.07722   0.96035   0.93733   0.91402
  178  C   1.06182   0.94487   0.99162   1.08733
  179  C   1.06182   0.99164   0.94487   1.08734
  180  C   1.06182   0.94487   1.08732   0.99164
  181  C   1.07722   0.91402   0.93733   0.96034
  182  C   1.08535   1.04552   0.96486   0.96011
  183  C   1.08535   0.96013   0.96485   1.04552
  184  C   1.08535   0.96012   1.04552   0.96485
  185  C   1.07255   1.04830   1.01602   1.05754
  186  C   1.07254   1.04829   1.05755   1.01602
  187  C   1.09062   0.85864   1.14671   1.24145
  188  C   1.09063   1.24144   0.85863   1.14671
  189  C   1.07322   0.93055   0.94781   0.90221
  190  C   1.06369   0.96709   0.99176   0.96381
  191  C   1.05055   1.03569   0.98331   1.13140
  192  C   1.05632   0.96553   1.00390   1.10200
  193  C   1.05633   1.10201   0.96553   1.00389
  194  C   1.06504   0.95117   0.93570   0.89278
  195  C   1.06505   0.89278   0.95117   0.93569
  196  C   1.07721   0.91402   0.96035   0.93734
  197  C   1.06182   0.99163   0.94488   1.08736
  198  C   1.06182   1.08735   0.94488   0.99164
  199  C   1.06183   1.08733   0.99163   0.94487
  200  C   1.08535   0.96012   0.96485   1.04553
  201  C   1.07255   1.04830   1.01602   1.05755
  202  C   1.09062   0.85860   1.24147   1.14674
  203  C   1.07720   0.91402   0.93734   0.96035
  204  C   1.06182   1.08734   0.94488   0.99164
  205  C   1.06505   0.95117   0.89276   0.93569
  206  C   1.08533   1.04555   0.96485   0.96018
  207  C   1.08530   0.96016   0.96490   1.04557
  208  C   1.07260   1.04825   1.01598   1.05753
  209  C   1.09057   0.85859   1.14674   1.24153
  210  C   1.09067   1.24148   1.14660   0.85851
  211  C   1.07321   0.90223   0.94781   0.93057
  212  C   1.06371   0.96706   0.96382   0.99176
  213  C   1.05055   1.13139   0.98328   1.03573
  214  C   1.04434   1.09877   1.01909   0.98647
  215  C   1.05632   0.96557   1.00394   1.10202
  216  C   1.05635   1.10199   1.00391   0.96550
  217  C   1.06505   0.95117   0.93568   0.89271
  218  C   1.06505   0.89281   0.93570   0.95117
  219  C   1.07723   0.93732   0.96033   0.91400
  220  C   1.07721   0.91403   0.93734   0.96035
  221  C   1.06179   0.99162   0.94489   1.08722
  222  C   1.06181   1.08731   0.94485   0.99159
  223  C   1.07719   0.96036   0.91404   0.93736
  224  C   1.07255   1.04831   1.05753   1.01604
  225  C   1.07324   0.93053   0.94780   0.90216
  226  C   1.06372   0.96710   0.99174   0.96380
  227  C   1.05054   1.03572   0.98331   1.13150
  228  C   1.07720   0.91400   0.96034   0.93734
  229  C   1.07323   0.93055   0.90223   0.94781
  230  C   1.09064   0.85861   1.24140   1.14676
  231  C   1.06369   0.99176   0.96710   0.96381
  232  C   1.05055   1.03565   1.13144   0.98331
  233  C   1.04433   0.98649   1.09871   1.01911
  234  C   1.05630   0.96555   1.10198   1.00389
  235  C   1.06502   0.95120   0.89282   0.93572
  236  C   1.08535   0.96013   1.04552   0.96484
  237  C   1.08535   0.96485   0.96012   1.04552
  238  C   1.08534   1.04553   0.96015   0.96484
  239  C   1.07255   1.01602   1.04829   1.05755
  240  C   1.07253   1.05755   1.04825   1.01603
  241  C   1.09061   1.24142   0.85864   1.14675
  242  C   1.09062   1.14674   1.24144   0.85864
  243  C   1.07323   0.90220   0.93054   0.94781
  244  C   1.06369   0.96381   0.96707   0.99175
  245  C   1.05055   1.13142   1.03569   0.98333
  246  C   1.05632   1.10200   0.96553   1.00390
  247  C   1.05632   1.00390   1.10203   0.96553
  248  C   1.06505   0.89277   0.95116   0.93569
  249  C   1.06504   0.93569   0.89276   0.95117
  250  C   1.07720   0.93734   0.91403   0.96036
  251  C   1.06182   1.08735   0.99163   0.94487
  252  C   1.06183   0.94487   1.08732   0.99162
  253  C   1.06184   0.99166   1.08728   0.94490
  254  C   1.08534   0.96485   1.04552   0.96012
  255  C   1.07254   1.01602   1.05756   1.04829
  256  C   1.09062   1.24144   1.14673   0.85864
  257  C   1.07720   0.93734   0.96035   0.91402
  258  C   1.06182   0.94487   0.99164   1.08735
  259  C   1.06505   0.89277   0.93569   0.95117
  260  C   1.07256   1.05755   1.01601   1.04820
  261  C   1.07322   0.94781   0.90224   0.93055
  262  C   1.06373   0.99174   0.96377   0.96705
  263  C   1.05052   0.98334   1.13140   1.03567
  264  C   1.07714   0.96040   0.93740   0.91409
  265  C   1.08535   1.04552   0.96013   0.96485
  266  C   1.07255   1.05755   1.04829   1.01602
  267  C   1.09062   1.14674   0.85862   1.24144
  268  C   1.07721   0.96035   0.91402   0.93733
  269  C   1.06182   0.99164   1.08734   0.94489
  270  C   1.06504   0.93570   0.95118   0.89278
  271  C   1.07323   0.93053   0.90219   0.94781
  272  C   1.07323   0.94780   0.93054   0.90220
  273  C   1.07323   0.90220   0.94781   0.93054
  274  C   1.06370   0.96380   0.99175   0.96708
  275  C   1.06369   0.96709   0.96381   0.99175
  276  C   1.06370   0.99175   0.96708   0.96380
  277  C   1.05055   0.98331   1.03567   1.13145
  278  C   1.05055   1.13144   0.98332   1.03568
  279  C   1.05055   1.03569   1.13146   0.98332
  280  C   1.04432   1.01910   1.09874   0.98648
  281  C   1.04432   1.09874   1.01914   0.98651
  282  C   1.04433   0.98646   1.01910   1.09882
  283  C   1.04432   0.98651   1.09875   1.01914
  284  C   1.04435   1.09874   0.98647   1.01910
  285  C   1.04432   1.01914   0.98651   1.09875
  286  C   1.05632   1.00390   0.96553   1.10201
  287  C   1.05632   1.10200   1.00390   0.96553
  288  C   1.05632   0.96553   1.10200   1.00390
  289  H   0.83768
  290  H   0.82864
  291  H   0.77939
  292  H   0.82865
  293  H   0.83769
  294  H   0.83768
  295  H   0.82864
  296  H   0.77938
  297  H   0.83770
  298  H   0.82864
  299  H   0.77938
  300  H   0.77938
  301  H   0.83769
  302  H   0.83768
  303  H   0.82864
  304  H   0.77939
  305  H   0.82863
  306  H   0.82864
  307  H   0.83767
  308  H   0.83768
  309  H   0.82865
  310  H   0.77939
  311  H   0.77939
  312  H   0.77940
  313  H   0.82864
  314  H   0.83769
  315  H   0.82864
  316  H   0.77938
  317  H   0.77938
  318  H   0.77939
  319  H   0.77938
  320  H   0.83769
  321  H   0.83769
  322  H   0.82865
  323  H   0.77939
  324  H   0.83769
  325  H   0.83769
  326  H   0.82864
  327  H   0.77939
  328  H   0.82865
  329  H   0.83769
  330  H   0.83769
  331  H   0.82864
  332  H   0.77939
  333  H   0.83769
  334  H   0.82864
  335  H   0.77938
  336  H   0.82864
  337  H   0.83771
  338  H   0.83770
  339  H   0.82861
  340  H   0.77937
  341  H   0.83768
  342  H   0.83769
  343  H   0.82864
  344  H   0.77938
  345  H   0.82866
  346  H   0.77938
  347  H   0.82866
  348  H   0.77938
  349  H   0.83768
  350  H   0.83768
  351  H   0.82864
  352  H   0.77939
  353  H   0.83769
  354  H   0.82864
  355  H   0.77939
  356  H   0.77939
  357  H   0.82863
  358  H   0.83769
  359  H   0.82864
  360  H   0.77938

 **********************
 *                    *
 * JOB ENDED NORMALLY *
 *                    *
 **********************



 TOTAL JOB TIME:           132.01 SECONDS

 == MOPAC DONE ==
