 *******************************************************************************
 **                                                                           **
 **                              MOPAC v22.1.0                                **
 **                                                                           **
 *******************************************************************************
 **          Digital Object Identifier (DOI): 10.5281/zenodo.6511958          **
 **    Visit the DOI location for information on how to cite this program.    **
 *******************************************************************************

                              PM7 CALCULATION RESULTS

 *******************************************************************************
 *  CALCULATION DONE:                                Thu Feb  1 11:03:59 2024  *
 *  PM7        - The PM7 Hamiltonian to be used
 *  NOOPT      - DO NOT OPTIMIZE ANY COORDINATES
 *
 *
 *
 *                 CHARGE ON SYSTEM = 0
 *
 *
 *
 *  T=         - A TIME OF 172800.0 SECONDS REQUESTED
 *  DUMP=N     - RESTART FILE WRITTEN EVERY 7200.0 SECONDS REQUESTED
 *******************************************************************************
PM7 CHARGE=0 NOOPT


   ATOM   CHEMICAL          X               Y               Z
  NUMBER   SYMBOL      (ANGSTROMS)     (ANGSTROMS)     (ANGSTROMS)

     1       N         14.34996223      7.22455862      3.50610416   
     2       N         20.24923698      2.39317059      1.32528387   
     3       N         20.09099484      2.55141273      4.57399088   
     4       N          3.50610416     14.34996223      7.22455862   
     5       N         14.19172009     10.47326563      3.34786202   
     6       N          4.57399088     20.09099484      2.55141273   
     7       N          1.32528387     20.24923698      2.39317059   
     8       N          7.22455862      3.50610416     14.34996223   
     9       N         10.47326563      3.34786202     14.19172009   
    10       N          3.34786202     14.19172009     10.47326563   
    11       N         19.02310812      8.29244534      9.24713677   
    12       N         21.20392841     13.12383337     15.14641152   
    13       N         22.27181513      8.45068748      9.40537891   
    14       N          9.40537891     22.27181513      8.45068748   
    15       N          9.24713677     19.02310812      8.29244534   
    16       N         15.14641152     21.20392841     13.12383337   
    17       N         21.04568627     16.37254038     15.30465366   
    18       N          2.39317059      1.32528387     20.24923698   
    19       N          2.55141273      4.57399088     20.09099484   
    20       N          8.45068748      9.40537891     22.27181513   
    21       N         13.12383337     15.14641152     21.20392841   
    22       N          8.29244534      9.24713677     19.02310812   
    23       N         16.37254038     15.30465366     21.04568627   
    24       N         15.30465366     21.04568627     16.37254038   
    25       C         14.60563680      6.42147855      2.37908312   
    26       C         15.45215913      5.35363903      2.53402167   
    27       C         15.09520581      5.56056199      4.83761767   
    28       C         15.71356779      7.43129281      6.92315288   
    29       C         15.57991382      5.07625513      6.07337415   
    30       C         14.68317687      6.89183953      4.79887123   
    31       C         20.50491155      3.52019163      0.52218020   
    32       C         21.21801588      2.80708730      5.37707095   
    33       C         21.06307733      3.65360963      6.44491047   
    34       C         20.88076614      0.61272227      3.28297000   
    35       C         18.31057012      3.18294189      2.61630475   
    36       C         19.58936771      2.63027424      2.50881997   
    37       C         20.32809849      1.89154346      3.39045478   
    38       C         16.50241881      4.02314020      5.81017210   
    39       C         17.78692690      4.70386931      7.77540930   
    40       C         15.82168970      5.98837740      7.09468019   
    41       C         18.75948133      3.29665631      6.23798751   
    42       C         16.67394612      3.91501829      4.36725669   
    43       C         17.52372485      3.78136432      6.72229437   
    44       C         20.58245162      1.10040352      0.99256478   
    45       C         18.79822777      2.88462737      4.90670997   
    46       C         20.99691106      0.15380589      1.98989616   
    47       C         17.85163014      3.29908681      3.90937859   
    48       C         15.73139933      4.84941622      3.77421440   
    49       C         19.82288460      3.93284983      6.94913328   
    50       C          2.37908312     14.60563680      6.42147855   
    51       C          2.53402167     15.45215913      5.35363903   
    52       C          4.83761767     15.09520581      5.56056199   
    53       C          6.92315288     15.71356779      7.43129281   
    54       C          6.07337415     15.57991382      5.07625513   
    55       C          4.79887123     14.68317687      6.89183953   
    56       C         15.09763631      7.88917091      5.74546886   
    57       C         15.31874113     11.27634570      3.09218745   
    58       C         15.16380258     12.34418522      2.24566512   
    59       C          9.55288438      8.43329642      0.54563572   
    60       C         12.41129537      8.51557950      2.71633286   
    61       C         14.98149139      9.18224475      5.28652888   
    62       C         14.42882374      9.28972953      4.00773129   
    63       C         13.69009296      8.40809472      3.26900051   
    64       C         11.88765215     13.67468405      1.19540544   
    65       C         10.60314406     11.70944685      1.87613455   
    66       C         12.86020658     12.13726226      2.60261844   
    67       C          9.19593106     10.73689242      0.33871276   
    68       C         10.77467137     10.26653144      1.98425646   
    69       C         13.33056756     13.78280596      1.02387813   
    70       C         10.97552988     13.91645993      0.17409940   
    71       C         11.62445010     12.62156912      2.11791043   
    72       C          9.68063907     11.97264890      0.82301962   
    73       C         12.89895302     10.80598472      3.01464738   
    74       C         11.95235539      9.80865334      2.60018794   
    75       C         13.92360985     12.84840803      1.96566194   
    76       C          9.83288756      9.67348915      1.04985853   
    77       C         16.64796572      8.02433510      7.86569967   
    78       C          5.37707095     21.21801588      2.80708730   
    79       C          0.52218020     20.50491155      3.52019163   
    80       C          6.44491047     21.06307733      3.65360963   
    81       C          2.61630475     18.31057012      3.18294189   
    82       C          3.28297000     20.88076614      0.61272227   
    83       C          3.39045478     20.32809849      1.89154346   
    84       C          2.50881997     19.58936771      2.63027424   
    85       C          7.09468019     15.82168970      5.98837740   
    86       C          5.81017210     16.50241881      4.02314020   
    87       C          7.77540930     17.78692690      4.70386931   
    88       C          6.23798751     18.75948133      3.29665631   
    89       C          4.36725669     16.67394612      3.91501829   
    90       C          6.72229437     17.52372485      3.78136432   
    91       C          4.90670997     18.79822777      2.88462737   
    92       C          0.99256478     20.58245162      1.10040352   
    93       C          3.90937859     17.85163014      3.29908681   
    94       C          1.98989616     20.99691106      0.15380589   
    95       C          6.94913328     19.82288460      3.93284983   
    96       C          3.77421440     15.73139933      4.84941622   
    97       C          8.61560761     20.98079425      6.51202062   
    98       C          8.50189319     17.35911149      6.96093183   
    99       C          7.88353121     19.22984231      4.87539662   
   100       C          8.01718518     16.87480463      5.72517535   
   101       C          8.91392213     18.69038903      6.99967827   
   102       C          8.49946269     19.68772041      6.05308064   
   103       C          9.16827526     21.08827903      7.79081821   
   104       C         23.05146328     21.35143388      3.36525308   
   105       C         21.72096445     22.40169356      0.08910265   
   106       C         23.25838624     20.99448056      1.06165708   
   107       C         21.61284254     22.57322087      1.53201806   
   108       C         22.54724047     21.63143706      2.12506035   
   109       C          6.42147855      2.37908312     14.60563680   
   110       C          5.35363903      2.53402167     15.45215913   
   111       C          5.56056199      4.83761767     15.09520581   
   112       C          7.43129281      6.92315288     15.71356779   
   113       C          5.07625513      6.07337415     15.57991382   
   114       C          6.89183953      4.79887123     14.68317687   
   115       C          7.88917091      5.74546886     15.09763631   
   116       C         11.27634570      3.09218745     15.31874113   
   117       C          8.43329642      0.54563572      9.55288438   
   118       C         12.34418522      2.24566512     15.16380258   
   119       C          9.18224475      5.28652888     14.98149139   
   120       C          8.51557950      2.71633286     12.41129537   
   121       C          8.40809472      3.26900051     13.69009296   
   122       C          9.28972953      4.00773129     14.42882374   
   123       C         13.67468405      1.19540544     11.88765215   
   124       C         11.70944685      1.87613455     10.60314406   
   125       C         10.73689242      0.33871276      9.19593106   
   126       C         12.13726226      2.60261844     12.86020658   
   127       C         13.78280596      1.02387813     13.33056756   
   128       C         10.26653144      1.98425646     10.77467137   
   129       C         12.62156912      2.11791043     11.62445010   
   130       C         11.97264890      0.82301962      9.68063907   
   131       C         13.91645993      0.17409940     10.97552988   
   132       C         10.80598472      3.01464738     12.89895302   
   133       C          9.80865334      2.60018794     11.95235539   
   134       C          9.67348915      1.04985853      9.83288756   
   135       C         12.84840803      1.96566194     13.92360985   
   136       C         20.98079425      6.51202062      8.61560761   
   137       C         17.35911149      6.96093183      8.50189319   
   138       C         19.22984231      4.87539662      7.88353121   
   139       C         16.87480463      5.72517535      8.01718518   
   140       C         18.69038903      6.99967827      8.91392213   
   141       C         19.68772041      6.05308064      8.49946269   
   142       C         21.08827903      7.79081821      9.16827526   
   143       C          5.74546886     15.09763631      7.88917091   
   144       C          3.09218745     15.31874113     11.27634570   
   145       C          2.24566512     15.16380258     12.34418522   
   146       C          0.54563572      9.55288438      8.43329642   
   147       C          2.71633286     12.41129537      8.51557950   
   148       C          5.28652888     14.98149139      9.18224475   
   149       C          4.00773129     14.42882374      9.28972953   
   150       C          3.26900051     13.69009296      8.40809472   
   151       C          1.87613455     10.60314406     11.70944685   
   152       C          1.19540544     11.88765215     13.67468405   
   153       C          2.60261844     12.86020658     12.13726226   
   154       C          0.33871276      9.19593106     10.73689242   
   155       C          1.02387813     13.33056756     13.78280596   
   156       C          1.98425646     10.77467137     10.26653144   
   157       C          0.82301962      9.68063907     11.97264890   
   158       C          0.17409940     10.97552988     13.91645993   
   159       C          2.11791043     11.62445010     12.62156912   
   160       C          3.01464738     12.89895302     10.80598472   
   161       C          2.60018794     11.95235539      9.80865334   
   162       C          1.96566194     13.92360985     12.84840803   
   163       C          1.04985853      9.83288756      9.67348915   
   164       C         18.22002805      9.41946638      8.99146220   
   165       C         20.07690737     12.32075330     14.89073695   
   166       C         23.07489520      8.70636205      8.27835787   
   167       C         17.15218853      9.26452783      8.14493987   
   168       C         20.23184592     11.25291378     14.04421462   
   169       C         22.98435313     15.08151950     14.51488236   
   170       C         20.31412900      9.08221664     11.18580363   
   171       C         20.20664422      8.52954899      9.90700604   
   172       C         21.70555554     15.18900428     15.06755001   
   173       C         23.50799635      9.92241495     12.99395494   
   174       C         22.53544192     11.45983674     14.40116794   
   175       C         22.06508094      9.81429304     12.82242763   
   176       C         22.49669548     12.79111428     14.81319688   
   177       C         22.60453422      8.78390212     10.69814598   
   178       C         23.44329311     13.78844566     14.39873744   
   179       C         21.60720284      9.19836156     11.64474361   
   180       C         21.47203865     10.74869097     13.76421144   
   181       C          7.86569967     16.64796572      8.02433510   
   182       C          8.27835787     23.07489520      8.70636205   
   183       C          8.99146220     18.22002805      9.41946638   
   184       C         14.89073695     20.07690737     12.32075330   
   185       C          8.14493987     17.15218853      9.26452783   
   186       C         14.04421462     20.23184592     11.25291378   
   187       C         11.18580363     20.31412900      9.08221664   
   188       C         14.51488236     22.98435313     15.08151950   
   189       C          9.90700604     20.20664422      8.52954899   
   190       C         15.06755001     21.70555554     15.18900428   
   191       C         12.99395494     23.50799635      9.92241495   
   192       C         14.40116794     22.53544192     11.45983674   
   193       C         12.82242763     22.06508094      9.81429304   
   194       C         10.69814598     22.60453422      8.78390212   
   195       C         14.81319688     22.49669548     12.79111428   
   196       C         11.64474361     21.60720284      9.19836156   
   197       C         14.39873744     23.44329311     13.78844566   
   198       C         13.76421144     21.47203865     10.74869097   
   199       C         15.80628079     20.96682476     14.30736947   
   200       C         20.79001170     17.17562045     14.17763262   
   201       C         19.94348937     18.24345997     14.33257117   
   202       C         17.08507838     20.41415711     14.41485425   
   203       C         19.66424917     18.74768278     15.57276390   
   204       C         17.54401836     20.29801219     15.70792809   
   205       C          3.52019163      0.52218020     20.50491155   
   206       C          2.80708730      5.37707095     21.21801588   
   207       C          3.65360963      6.44491047     21.06307733   
   208       C          0.61272227      3.28297000     20.88076614   
   209       C          3.18294189      2.61630475     18.31057012   
   210       C          2.63027424      2.50881997     19.58936771   
   211       C          1.89154346      3.39045478     20.32809849   
   212       C          4.70386931      7.77540930     17.78692690   
   213       C          5.98837740      7.09468019     15.82168970   
   214       C          4.02314020      5.81017210     16.50241881   
   215       C          3.29665631      6.23798751     18.75948133   
   216       C          3.91501829      4.36725669     16.67394612   
   217       C          3.78136432      6.72229437     17.52372485   
   218       C          1.10040352      0.99256478     20.58245162   
   219       C          2.88462737      4.90670997     18.79822777   
   220       C          0.15380589      1.98989616     20.99691106   
   221       C          3.29908681      3.90937859     17.85163014   
   222       C          4.84941622      3.77421440     15.73139933   
   223       C          3.93284983      6.94913328     19.82288460   
   224       C          8.02433510      7.86569967     16.64796572   
   225       C         21.35143388      3.36525308     23.05146328   
   226       C         22.40169356      0.08910265     21.72096445   
   227       C         20.99448056      1.06165708     23.25838624   
   228       C         22.57322087      1.53201806     21.61284254   
   229       C         21.63143706      2.12506035     22.54724047   
   230       C          6.51202062      8.61560761     20.98079425   
   231       C          6.96093183      8.50189319     17.35911149   
   232       C          4.87539662      7.88353121     19.22984231   
   233       C          5.72517535      8.01718518     16.87480463   
   234       C          6.99967827      8.91392213     18.69038903   
   235       C          6.05308064      8.49946269     19.68772041   
   236       C          7.79081821      9.16827526     21.08827903   
   237       C          8.70636205      8.27835787     23.07489520   
   238       C         12.32075330     14.89073695     20.07690737   
   239       C          9.41946638      8.99146220     18.22002805   
   240       C         11.25291378     14.04421462     20.23184592   
   241       C          9.26452783      8.14493987     17.15218853   
   242       C          9.08221664     11.18580363     20.31412900   
   243       C         15.08151950     14.51488236     22.98435313   
   244       C         15.18900428     15.06755001     21.70555554   
   245       C          8.52954899      9.90700604     20.20664422   
   246       C          9.92241495     12.99395494     23.50799635   
   247       C         11.45983674     14.40116794     22.53544192   
   248       C          9.81429304     12.82242763     22.06508094   
   249       C          8.78390212     10.69814598     22.60453422   
   250       C         12.79111428     14.81319688     22.49669548   
   251       C          9.19836156     11.64474361     21.60720284   
   252       C         13.78844566     14.39873744     23.44329311   
   253       C         10.74869097     13.76421144     21.47203865   
   254       C         20.96682476     14.30736947     15.80628079   
   255       C         17.17562045     14.17763262     20.79001170   
   256       C         18.24345997     14.33257117     19.94348937   
   257       C         20.41415711     14.41485425     17.08507838   
   258       C         18.74768278     15.57276390     19.66424917   
   259       C         20.29801219     15.70792809     17.54401836   
   260       C          3.36525308     23.05146328     21.35143388   
   261       C          0.08910265     21.72096445     22.40169356   
   262       C          1.06165708     23.25838624     20.99448056   
   263       C          1.53201806     21.61284254     22.57322087   
   264       C          2.12506035     22.54724047     21.63143706   
   265       C         14.30736947     15.80628079     20.96682476   
   266       C         14.17763262     20.79001170     17.17562045   
   267       C         14.33257117     19.94348937     18.24345997   
   268       C         14.41485425     17.08507838     20.41415711   
   269       C         15.57276390     19.66424917     18.74768278   
   270       C         15.70792809     17.54401836     20.29801219   
   271       C         18.89322969     19.57395880     17.60872160   
   272       C         17.60872160     18.89322969     19.57395880   
   273       C         19.57395880     17.60872160     18.89322969   
   274       C         18.03653701     16.63616717     20.30044269   
   275       C         20.30044269     18.03653701     16.63616717   
   276       C         16.63616717     20.30044269     18.03653701   
   277       C         16.16580619     18.72170238     19.68208071   
   278       C         19.68208071     16.16580619     18.72170238   
   279       C         18.72170238     19.68208071     16.16580619   
   280       C         22.77407938     21.47918857     23.42299960   
   281       C         19.81573468     18.52084387     17.87192365   
   282       C         23.42299960     22.77407938     21.47918857   
   283       C         17.87192365     19.81573468     18.52084387   
   284       C         21.47918857     23.42299960     22.77407938   
   285       C         18.52084387     17.87192365     19.81573468   
   286       C         16.70525947     16.59742073     20.71247163   
   287       C         20.71247163     16.70525947     16.59742073   
   288       C         16.59742073     20.71247163     16.70525947   
   289       H         14.10806837      6.65202221      1.37934482   
   290       H          9.99483445      7.54573874      0.99433456   
   291       H         11.84291205      7.63698872      2.42092077   
   292       H         15.89410920      4.90494019      1.64646399   
   293       H         22.21775418      2.30951887      5.14652729   
   294       H         20.00734312      4.51992993      0.75274746   
   295       H         21.95063501      4.09555970      6.89360931   
   296       H         21.17617823      0.04436255      4.16156078   
   297       H         17.74218680      3.47835398      1.73771397   
   298       H          1.37934482     14.10806837      6.65202221   
   299       H          0.99433456      9.99483445      7.54573874   
   300       H          2.42092077     11.84291205      7.63698872   
   301       H         15.27690348     10.06083553      5.85491220   
   302       H         22.84435154      8.20879362      7.27861957   
   303       H         16.31847943     11.04580204      3.58975588   
   304       H         16.05136026     12.79288406      1.80371505   
   305       H         16.70348969     10.15208551      7.70298980   
   306       H          1.64646399     15.89410920      4.90494019   
   307       H          5.14652729     22.21775418      2.30951887   
   308       H          0.75274746     20.00734312      4.51992993   
   309       H          6.89360931     21.95063501      4.09555970   
   310       H          1.73771397     17.74218680      3.47835398   
   311       H          4.16156078     21.17617823      0.04436255   
   312       H          8.32019552     21.85938503      5.94363730   
   313       H         22.60276444     21.79338395      4.25281076   
   314       H          6.65202221      1.37934482     14.10806837   
   315       H          7.54573874      0.99433456      9.99483445   
   316       H          7.63698872      2.42092077     11.84291205   
   317       H         10.06083553      5.85491220     15.27690348   
   318       H         21.85938503      5.94363730      8.32019552   
   319       H          5.85491220     15.27690348     10.06083553   
   320       H         18.45057171     10.41920468      9.48903063   
   321       H         19.07716907     12.55129696     15.38830538   
   322       H         19.34428824     10.80421494     13.60226455   
   323       H         19.43553822      9.37762873     11.75418695   
   324       H          3.58975588     16.31847943     11.04580204   
   325       H          7.27861957     22.84435154      8.20879362   
   326       H          1.80371505     16.05136026     12.79288406   
   327       H          7.70298980     16.70348969     10.15208551   
   328       H         15.38830538     19.07716907     12.55129696   
   329       H          9.48903063     18.45057171     10.41920468   
   330       H         13.60226455     19.34428824     10.80421494   
   331       H         11.75418695     19.43553822      9.37762873   
   332       H         21.28758013     16.94507679     13.17789432   
   333       H         19.50153930     18.69215881     13.44501349   
   334       H         23.55273645     15.96011028     14.21947027   
   335       H         17.65346170     20.11874502     13.53626347   
   336       H          4.90494019      1.64646399     15.89410920   
   337       H          2.30951887      5.14652729     22.21775418   
   338       H          4.51992993      0.75274746     20.00734312   
   339       H          4.09555970      6.89360931     21.95063501   
   340       H          0.04436255      4.16156078     21.17617823   
   341       H          3.47835398      1.73771397     17.74218680   
   342       H          8.20879362      7.27861957     22.84435154   
   343       H         11.04580204      3.58975588     16.31847943   
   344       H         12.79288406      1.80371505     16.05136026   
   345       H         10.15208551      7.70298980     16.70348969   
   346       H         21.79338395      4.25281076     22.60276444   
   347       H          5.94363730      8.32019552     21.85938503   
   348       H         10.41920468      9.48903063     18.45057171   
   349       H         12.55129696     15.38830538     19.07716907   
   350       H         10.80421494     13.60226455     19.34428824   
   351       H          9.37762873     11.75418695     19.43553822   
   352       H         16.94507679     13.17789432     21.28758013   
   353       H         18.69215881     13.44501349     19.50153930   
   354       H         20.11874502     13.53626347     17.65346170   
   355       H         15.96011028     14.21947027     23.55273645   
   356       H          4.25281076     22.60276444     21.79338395   
   357       H         13.17789432     21.28758013     16.94507679   
   358       H         13.44501349     19.50153930     18.69215881   
   359       H         13.53626347     17.65346170     20.11874502   
   360       H         14.21947027     23.55273645     15.96011028   
   361      Tv         23.59709900      0.00000000      0.00000000   
   362      Tv          0.00000000     23.59709900      0.00000000   
   363      Tv          0.00000000      0.00000000     23.59709900   


                   THE SYSTEM IS A SOLID


                UNIT CELL TRANSLATION VECTORS

              X                Y              Z
    T1 =    23.5970990      0.0000000      0.0000000
    T2 =     0.0000000     23.5970990      0.0000000
    T3 =     0.0000000      0.0000000     23.5970990


          CARTESIAN COORDINATES 

    NO.       ATOM           X           Y           Z

     1         N         14.3500      7.2246      3.5061
     2         N         20.2492      2.3932      1.3253
     3         N         20.0910      2.5514      4.5740
     4         N          3.5061     14.3500      7.2246
     5         N         14.1917     10.4733      3.3479
     6         N          4.5740     20.0910      2.5514
     7         N          1.3253     20.2492      2.3932
     8         N          7.2246      3.5061     14.3500
     9         N         10.4733      3.3479     14.1917
    10         N          3.3479     14.1917     10.4733
    11         N         19.0231      8.2924      9.2471
    12         N         21.2039     13.1238     15.1464
    13         N         22.2718      8.4507      9.4054
    14         N          9.4054     22.2718      8.4507
    15         N          9.2471     19.0231      8.2924
    16         N         15.1464     21.2039     13.1238
    17         N         21.0457     16.3725     15.3047
    18         N          2.3932      1.3253     20.2492
    19         N          2.5514      4.5740     20.0910
    20         N          8.4507      9.4054     22.2718
    21         N         13.1238     15.1464     21.2039
    22         N          8.2924      9.2471     19.0231
    23         N         16.3725     15.3047     21.0457
    24         N         15.3047     21.0457     16.3725
    25         C         14.6056      6.4215      2.3791
    26         C         15.4522      5.3536      2.5340
    27         C         15.0952      5.5606      4.8376
    28         C         15.7136      7.4313      6.9232
    29         C         15.5799      5.0763      6.0734
    30         C         14.6832      6.8918      4.7989
    31         C         20.5049      3.5202      0.5222
    32         C         21.2180      2.8071      5.3771
    33         C         21.0631      3.6536      6.4449
    34         C         20.8808      0.6127      3.2830
    35         C         18.3106      3.1829      2.6163
    36         C         19.5894      2.6303      2.5088
    37         C         20.3281      1.8915      3.3905
    38         C         16.5024      4.0231      5.8102
    39         C         17.7869      4.7039      7.7754
    40         C         15.8217      5.9884      7.0947
    41         C         18.7595      3.2967      6.2380
    42         C         16.6739      3.9150      4.3673
    43         C         17.5237      3.7814      6.7223
    44         C         20.5825      1.1004      0.9926
    45         C         18.7982      2.8846      4.9067
    46         C         20.9969      0.1538      1.9899
    47         C         17.8516      3.2991      3.9094
    48         C         15.7314      4.8494      3.7742
    49         C         19.8229      3.9328      6.9491
    50         C          2.3791     14.6056      6.4215
    51         C          2.5340     15.4522      5.3536
    52         C          4.8376     15.0952      5.5606
    53         C          6.9232     15.7136      7.4313
    54         C          6.0734     15.5799      5.0763
    55         C          4.7989     14.6832      6.8918
    56         C         15.0976      7.8892      5.7455
    57         C         15.3187     11.2763      3.0922
    58         C         15.1638     12.3442      2.2457
    59         C          9.5529      8.4333      0.5456
    60         C         12.4113      8.5156      2.7163
    61         C         14.9815      9.1822      5.2865
    62         C         14.4288      9.2897      4.0077
    63         C         13.6901      8.4081      3.2690
    64         C         11.8877     13.6747      1.1954
    65         C         10.6031     11.7094      1.8761
    66         C         12.8602     12.1373      2.6026
    67         C          9.1959     10.7369      0.3387
    68         C         10.7747     10.2665      1.9843
    69         C         13.3306     13.7828      1.0239
    70         C         10.9755     13.9165      0.1741
    71         C         11.6245     12.6216      2.1179
    72         C          9.6806     11.9726      0.8230
    73         C         12.8990     10.8060      3.0146
    74         C         11.9524      9.8087      2.6002
    75         C         13.9236     12.8484      1.9657
    76         C          9.8329      9.6735      1.0499
    77         C         16.6480      8.0243      7.8657
    78         C          5.3771     21.2180      2.8071
    79         C          0.5222     20.5049      3.5202
    80         C          6.4449     21.0631      3.6536
    81         C          2.6163     18.3106      3.1829
    82         C          3.2830     20.8808      0.6127
    83         C          3.3905     20.3281      1.8915
    84         C          2.5088     19.5894      2.6303
    85         C          7.0947     15.8217      5.9884
    86         C          5.8102     16.5024      4.0231
    87         C          7.7754     17.7869      4.7039
    88         C          6.2380     18.7595      3.2967
    89         C          4.3673     16.6739      3.9150
    90         C          6.7223     17.5237      3.7814
    91         C          4.9067     18.7982      2.8846
    92         C          0.9926     20.5825      1.1004
    93         C          3.9094     17.8516      3.2991
    94         C          1.9899     20.9969      0.1538
    95         C          6.9491     19.8229      3.9328
    96         C          3.7742     15.7314      4.8494
    97         C          8.6156     20.9808      6.5120
    98         C          8.5019     17.3591      6.9609
    99         C          7.8835     19.2298      4.8754
   100         C          8.0172     16.8748      5.7252
   101         C          8.9139     18.6904      6.9997
   102         C          8.4995     19.6877      6.0531
   103         C          9.1683     21.0883      7.7908
   104         C         23.0515     21.3514      3.3653
   105         C         21.7210     22.4017      0.0891
   106         C         23.2584     20.9945      1.0617
   107         C         21.6128     22.5732      1.5320
   108         C         22.5472     21.6314      2.1251
   109         C          6.4215      2.3791     14.6056
   110         C          5.3536      2.5340     15.4522
   111         C          5.5606      4.8376     15.0952
   112         C          7.4313      6.9232     15.7136
   113         C          5.0763      6.0734     15.5799
   114         C          6.8918      4.7989     14.6832
   115         C          7.8892      5.7455     15.0976
   116         C         11.2763      3.0922     15.3187
   117         C          8.4333      0.5456      9.5529
   118         C         12.3442      2.2457     15.1638
   119         C          9.1822      5.2865     14.9815
   120         C          8.5156      2.7163     12.4113
   121         C          8.4081      3.2690     13.6901
   122         C          9.2897      4.0077     14.4288
   123         C         13.6747      1.1954     11.8877
   124         C         11.7094      1.8761     10.6031
   125         C         10.7369      0.3387      9.1959
   126         C         12.1373      2.6026     12.8602
   127         C         13.7828      1.0239     13.3306
   128         C         10.2665      1.9843     10.7747
   129         C         12.6216      2.1179     11.6245
   130         C         11.9726      0.8230      9.6806
   131         C         13.9165      0.1741     10.9755
   132         C         10.8060      3.0146     12.8990
   133         C          9.8087      2.6002     11.9524
   134         C          9.6735      1.0499      9.8329
   135         C         12.8484      1.9657     13.9236
   136         C         20.9808      6.5120      8.6156
   137         C         17.3591      6.9609      8.5019
   138         C         19.2298      4.8754      7.8835
   139         C         16.8748      5.7252      8.0172
   140         C         18.6904      6.9997      8.9139
   141         C         19.6877      6.0531      8.4995
   142         C         21.0883      7.7908      9.1683
   143         C          5.7455     15.0976      7.8892
   144         C          3.0922     15.3187     11.2763
   145         C          2.2457     15.1638     12.3442
   146         C          0.5456      9.5529      8.4333
   147         C          2.7163     12.4113      8.5156
   148         C          5.2865     14.9815      9.1822
   149         C          4.0077     14.4288      9.2897
   150         C          3.2690     13.6901      8.4081
   151         C          1.8761     10.6031     11.7094
   152         C          1.1954     11.8877     13.6747
   153         C          2.6026     12.8602     12.1373
   154         C          0.3387      9.1959     10.7369
   155         C          1.0239     13.3306     13.7828
   156         C          1.9843     10.7747     10.2665
   157         C          0.8230      9.6806     11.9726
   158         C          0.1741     10.9755     13.9165
   159         C          2.1179     11.6245     12.6216
   160         C          3.0146     12.8990     10.8060
   161         C          2.6002     11.9524      9.8087
   162         C          1.9657     13.9236     12.8484
   163         C          1.0499      9.8329      9.6735
   164         C         18.2200      9.4195      8.9915
   165         C         20.0769     12.3208     14.8907
   166         C         23.0749      8.7064      8.2784
   167         C         17.1522      9.2645      8.1449
   168         C         20.2318     11.2529     14.0442
   169         C         22.9844     15.0815     14.5149
   170         C         20.3141      9.0822     11.1858
   171         C         20.2066      8.5295      9.9070
   172         C         21.7056     15.1890     15.0676
   173         C         23.5080      9.9224     12.9940
   174         C         22.5354     11.4598     14.4012
   175         C         22.0651      9.8143     12.8224
   176         C         22.4967     12.7911     14.8132
   177         C         22.6045      8.7839     10.6981
   178         C         23.4433     13.7884     14.3987
   179         C         21.6072      9.1984     11.6447
   180         C         21.4720     10.7487     13.7642
   181         C          7.8657     16.6480      8.0243
   182         C          8.2784     23.0749      8.7064
   183         C          8.9915     18.2200      9.4195
   184         C         14.8907     20.0769     12.3208
   185         C          8.1449     17.1522      9.2645
   186         C         14.0442     20.2318     11.2529
   187         C         11.1858     20.3141      9.0822
   188         C         14.5149     22.9844     15.0815
   189         C          9.9070     20.2066      8.5295
   190         C         15.0676     21.7056     15.1890
   191         C         12.9940     23.5080      9.9224
   192         C         14.4012     22.5354     11.4598
   193         C         12.8224     22.0651      9.8143
   194         C         10.6981     22.6045      8.7839
   195         C         14.8132     22.4967     12.7911
   196         C         11.6447     21.6072      9.1984
   197         C         14.3987     23.4433     13.7884
   198         C         13.7642     21.4720     10.7487
   199         C         15.8063     20.9668     14.3074
   200         C         20.7900     17.1756     14.1776
   201         C         19.9435     18.2435     14.3326
   202         C         17.0851     20.4142     14.4149
   203         C         19.6642     18.7477     15.5728
   204         C         17.5440     20.2980     15.7079
   205         C          3.5202      0.5222     20.5049
   206         C          2.8071      5.3771     21.2180
   207         C          3.6536      6.4449     21.0631
   208         C          0.6127      3.2830     20.8808
   209         C          3.1829      2.6163     18.3106
   210         C          2.6303      2.5088     19.5894
   211         C          1.8915      3.3905     20.3281
   212         C          4.7039      7.7754     17.7869
   213         C          5.9884      7.0947     15.8217
   214         C          4.0231      5.8102     16.5024
   215         C          3.2967      6.2380     18.7595
   216         C          3.9150      4.3673     16.6739
   217         C          3.7814      6.7223     17.5237
   218         C          1.1004      0.9926     20.5825
   219         C          2.8846      4.9067     18.7982
   220         C          0.1538      1.9899     20.9969
   221         C          3.2991      3.9094     17.8516
   222         C          4.8494      3.7742     15.7314
   223         C          3.9328      6.9491     19.8229
   224         C          8.0243      7.8657     16.6480
   225         C         21.3514      3.3653     23.0515
   226         C         22.4017      0.0891     21.7210
   227         C         20.9945      1.0617     23.2584
   228         C         22.5732      1.5320     21.6128
   229         C         21.6314      2.1251     22.5472
   230         C          6.5120      8.6156     20.9808
   231         C          6.9609      8.5019     17.3591
   232         C          4.8754      7.8835     19.2298
   233         C          5.7252      8.0172     16.8748
   234         C          6.9997      8.9139     18.6904
   235         C          6.0531      8.4995     19.6877
   236         C          7.7908      9.1683     21.0883
   237         C          8.7064      8.2784     23.0749
   238         C         12.3208     14.8907     20.0769
   239         C          9.4195      8.9915     18.2200
   240         C         11.2529     14.0442     20.2318
   241         C          9.2645      8.1449     17.1522
   242         C          9.0822     11.1858     20.3141
   243         C         15.0815     14.5149     22.9844
   244         C         15.1890     15.0676     21.7056
   245         C          8.5295      9.9070     20.2066
   246         C          9.9224     12.9940     23.5080
   247         C         11.4598     14.4012     22.5354
   248         C          9.8143     12.8224     22.0651
   249         C          8.7839     10.6981     22.6045
   250         C         12.7911     14.8132     22.4967
   251         C          9.1984     11.6447     21.6072
   252         C         13.7884     14.3987     23.4433
   253         C         10.7487     13.7642     21.4720
   254         C         20.9668     14.3074     15.8063
   255         C         17.1756     14.1776     20.7900
   256         C         18.2435     14.3326     19.9435
   257         C         20.4142     14.4149     17.0851
   258         C         18.7477     15.5728     19.6642
   259         C         20.2980     15.7079     17.5440
   260         C          3.3653     23.0515     21.3514
   261         C          0.0891     21.7210     22.4017
   262         C          1.0617     23.2584     20.9945
   263         C          1.5320     21.6128     22.5732
   264         C          2.1251     22.5472     21.6314
   265         C         14.3074     15.8063     20.9668
   266         C         14.1776     20.7900     17.1756
   267         C         14.3326     19.9435     18.2435
   268         C         14.4149     17.0851     20.4142
   269         C         15.5728     19.6642     18.7477
   270         C         15.7079     17.5440     20.2980
   271         C         18.8932     19.5740     17.6087
   272         C         17.6087     18.8932     19.5740
   273         C         19.5740     17.6087     18.8932
   274         C         18.0365     16.6362     20.3004
   275         C         20.3004     18.0365     16.6362
   276         C         16.6362     20.3004     18.0365
   277         C         16.1658     18.7217     19.6821
   278         C         19.6821     16.1658     18.7217
   279         C         18.7217     19.6821     16.1658
   280         C         22.7741     21.4792     23.4230
   281         C         19.8157     18.5208     17.8719
   282         C         23.4230     22.7741     21.4792
   283         C         17.8719     19.8157     18.5208
   284         C         21.4792     23.4230     22.7741
   285         C         18.5208     17.8719     19.8157
   286         C         16.7053     16.5974     20.7125
   287         C         20.7125     16.7053     16.5974
   288         C         16.5974     20.7125     16.7053
   289         H         14.1081      6.6520      1.3793
   290         H          9.9948      7.5457      0.9943
   291         H         11.8429      7.6370      2.4209
   292         H         15.8941      4.9049      1.6465
   293         H         22.2178      2.3095      5.1465
   294         H         20.0073      4.5199      0.7527
   295         H         21.9506      4.0956      6.8936
   296         H         21.1762      0.0444      4.1616
   297         H         17.7422      3.4784      1.7377
   298         H          1.3793     14.1081      6.6520
   299         H          0.9943      9.9948      7.5457
   300         H          2.4209     11.8429      7.6370
   301         H         15.2769     10.0608      5.8549
   302         H         22.8444      8.2088      7.2786
   303         H         16.3185     11.0458      3.5898
   304         H         16.0514     12.7929      1.8037
   305         H         16.7035     10.1521      7.7030
   306         H          1.6465     15.8941      4.9049
   307         H          5.1465     22.2178      2.3095
   308         H          0.7527     20.0073      4.5199
   309         H          6.8936     21.9506      4.0956
   310         H          1.7377     17.7422      3.4784
   311         H          4.1616     21.1762      0.0444
   312         H          8.3202     21.8594      5.9436
   313         H         22.6028     21.7934      4.2528
   314         H          6.6520      1.3793     14.1081
   315         H          7.5457      0.9943      9.9948
   316         H          7.6370      2.4209     11.8429
   317         H         10.0608      5.8549     15.2769
   318         H         21.8594      5.9436      8.3202
   319         H          5.8549     15.2769     10.0608
   320         H         18.4506     10.4192      9.4890
   321         H         19.0772     12.5513     15.3883
   322         H         19.3443     10.8042     13.6023
   323         H         19.4355      9.3776     11.7542
   324         H          3.5898     16.3185     11.0458
   325         H          7.2786     22.8444      8.2088
   326         H          1.8037     16.0514     12.7929
   327         H          7.7030     16.7035     10.1521
   328         H         15.3883     19.0772     12.5513
   329         H          9.4890     18.4506     10.4192
   330         H         13.6023     19.3443     10.8042
   331         H         11.7542     19.4355      9.3776
   332         H         21.2876     16.9451     13.1779
   333         H         19.5015     18.6922     13.4450
   334         H         23.5527     15.9601     14.2195
   335         H         17.6535     20.1187     13.5363
   336         H          4.9049      1.6465     15.8941
   337         H          2.3095      5.1465     22.2178
   338         H          4.5199      0.7527     20.0073
   339         H          4.0956      6.8936     21.9506
   340         H          0.0444      4.1616     21.1762
   341         H          3.4784      1.7377     17.7422
   342         H          8.2088      7.2786     22.8444
   343         H         11.0458      3.5898     16.3185
   344         H         12.7929      1.8037     16.0514
   345         H         10.1521      7.7030     16.7035
   346         H         21.7934      4.2528     22.6028
   347         H          5.9436      8.3202     21.8594
   348         H         10.4192      9.4890     18.4506
   349         H         12.5513     15.3883     19.0772
   350         H         10.8042     13.6023     19.3443
   351         H          9.3776     11.7542     19.4355
   352         H         16.9451     13.1779     21.2876
   353         H         18.6922     13.4450     19.5015
   354         H         20.1187     13.5363     17.6535
   355         H         15.9601     14.2195     23.5527
   356         H          4.2528     22.6028     21.7934
   357         H         13.1779     21.2876     16.9451
   358         H         13.4450     19.5015     18.6922
   359         H         13.5363     17.6535     20.1187
   360         H         14.2195     23.5527     15.9601

 General Reference for PM7:
 "Optimization of Parameters for Semiempirical Methods VI: More Modifications to the 
 NDDO Approximations and Re-optimization of Parameters", J. J. P. Stewart, J. Mol. Mod., 1:32, 19 (2013)
 https://link.springer.com/article/10.1007/s00894-012-1667-x

           Empirical Formula: C264 H72 N24  =   360 atoms



      RHF CALCULATION, NO. OF DOUBLY OCCUPIED LEVELS = 624


 -------------------------------------------------------------------------------
 PM7 CHARGE=0 NOOPT




     NO PARAMETERS MARKED FOR OPTIMIZATION, SO 1SCF WAS USED  
     SCF FIELD WAS ACHIEVED                                   


                              PM7 CALCULATION
                                                       MOPAC v22.1.0 Linux
                                                       Thu Feb  1 11:09:25 2024




          FINAL HEAT OF FORMATION =       3466.83548 KCAL/MOL =   14505.23964 KJ/MOL
          H.o.F. per unit cell    =        144.45148 KCAL, for 24 unit cells, unit cell = C11 H3 N1



          IONIZATION POTENTIAL    =          6.798637 EV
          HOMO LUMO ENERGIES (EV) =         -6.799 -2.449
          NO. OF FILLED LEVELS    =        624
          MOLECULAR WEIGHT        =       3579.6336

                   THE SYSTEM IS A SOLID


                UNIT CELL TRANSLATION VECTORS

              X                Y              Z
    T1 =    23.5970990      0.0000000      0.0000000
    T2 =     0.0000000     23.5970990      0.0000000
    T3 =     0.0000000      0.0000000     23.5970990

          VOLUME OF UNIT CELL     =      13139.409 CUBIC ANGSTROMS

          DENSITY                 =          0.452 GRAMS/CC
                              A   =         23.597 ANGSTROMS
                              B   =         23.597 ANGSTROMS
                              C   =         23.597 ANGSTROMS
                            ALPHA =         90.000 DEGREES
                            BETA  =         90.000 DEGREES
                            GAMMA =         90.000 DEGREES



          SCF CALCULATIONS        =          1

          WALL-CLOCK TIME         =          5 MINUTES AND 25.797 SECONDS
          COMPUTATION TIME        =          5 MINUTES AND 25.788 SECONDS




   ATOM   CHEMICAL          X               Y               Z
  NUMBER   SYMBOL      (ANGSTROMS)     (ANGSTROMS)     (ANGSTROMS)

     1       N         14.34996223      7.22455862      3.50610416   
     2       N         20.24923698      2.39317059      1.32528387   
     3       N         20.09099484      2.55141273      4.57399088   
     4       N          3.50610416     14.34996223      7.22455862   
     5       N         14.19172009     10.47326563      3.34786202   
     6       N          4.57399088     20.09099484      2.55141273   
     7       N          1.32528387     20.24923698      2.39317059   
     8       N          7.22455862      3.50610416     14.34996223   
     9       N         10.47326563      3.34786202     14.19172009   
    10       N          3.34786202     14.19172009     10.47326563   
    11       N         19.02310812      8.29244534      9.24713677   
    12       N         21.20392841     13.12383337     15.14641152   
    13       N         22.27181513      8.45068748      9.40537891   
    14       N          9.40537891     22.27181513      8.45068748   
    15       N          9.24713677     19.02310812      8.29244534   
    16       N         15.14641152     21.20392841     13.12383337   
    17       N         21.04568627     16.37254038     15.30465366   
    18       N          2.39317059      1.32528387     20.24923698   
    19       N          2.55141273      4.57399088     20.09099484   
    20       N          8.45068748      9.40537891     22.27181513   
    21       N         13.12383337     15.14641152     21.20392841   
    22       N          8.29244534      9.24713677     19.02310812   
    23       N         16.37254038     15.30465366     21.04568627   
    24       N         15.30465366     21.04568627     16.37254038   
    25       C         14.60563680      6.42147855      2.37908312   
    26       C         15.45215913      5.35363903      2.53402167   
    27       C         15.09520581      5.56056199      4.83761767   
    28       C         15.71356779      7.43129281      6.92315288   
    29       C         15.57991382      5.07625513      6.07337415   
    30       C         14.68317687      6.89183953      4.79887123   
    31       C         20.50491155      3.52019163      0.52218020   
    32       C         21.21801588      2.80708730      5.37707095   
    33       C         21.06307733      3.65360963      6.44491047   
    34       C         20.88076614      0.61272227      3.28297000   
    35       C         18.31057012      3.18294189      2.61630475   
    36       C         19.58936771      2.63027424      2.50881997   
    37       C         20.32809849      1.89154346      3.39045478   
    38       C         16.50241881      4.02314020      5.81017210   
    39       C         17.78692690      4.70386931      7.77540930   
    40       C         15.82168970      5.98837740      7.09468019   
    41       C         18.75948133      3.29665631      6.23798751   
    42       C         16.67394612      3.91501829      4.36725669   
    43       C         17.52372485      3.78136432      6.72229437   
    44       C         20.58245162      1.10040352      0.99256478   
    45       C         18.79822777      2.88462737      4.90670997   
    46       C         20.99691106      0.15380589      1.98989616   
    47       C         17.85163014      3.29908681      3.90937859   
    48       C         15.73139933      4.84941622      3.77421440   
    49       C         19.82288460      3.93284983      6.94913328   
    50       C          2.37908312     14.60563680      6.42147855   
    51       C          2.53402167     15.45215913      5.35363903   
    52       C          4.83761767     15.09520581      5.56056199   
    53       C          6.92315288     15.71356779      7.43129281   
    54       C          6.07337415     15.57991382      5.07625513   
    55       C          4.79887123     14.68317687      6.89183953   
    56       C         15.09763631      7.88917091      5.74546886   
    57       C         15.31874113     11.27634570      3.09218745   
    58       C         15.16380258     12.34418522      2.24566512   
    59       C          9.55288438      8.43329642      0.54563572   
    60       C         12.41129537      8.51557950      2.71633286   
    61       C         14.98149139      9.18224475      5.28652888   
    62       C         14.42882374      9.28972953      4.00773129   
    63       C         13.69009296      8.40809472      3.26900051   
    64       C         11.88765215     13.67468405      1.19540544   
    65       C         10.60314406     11.70944685      1.87613455   
    66       C         12.86020658     12.13726226      2.60261844   
    67       C          9.19593106     10.73689242      0.33871276   
    68       C         10.77467137     10.26653144      1.98425646   
    69       C         13.33056756     13.78280596      1.02387813   
    70       C         10.97552988     13.91645993      0.17409940   
    71       C         11.62445010     12.62156912      2.11791043   
    72       C          9.68063907     11.97264890      0.82301962   
    73       C         12.89895302     10.80598472      3.01464738   
    74       C         11.95235539      9.80865334      2.60018794   
    75       C         13.92360985     12.84840803      1.96566194   
    76       C          9.83288756      9.67348915      1.04985853   
    77       C         16.64796572      8.02433510      7.86569967   
    78       C          5.37707095     21.21801588      2.80708730   
    79       C          0.52218020     20.50491155      3.52019163   
    80       C          6.44491047     21.06307733      3.65360963   
    81       C          2.61630475     18.31057012      3.18294189   
    82       C          3.28297000     20.88076614      0.61272227   
    83       C          3.39045478     20.32809849      1.89154346   
    84       C          2.50881997     19.58936771      2.63027424   
    85       C          7.09468019     15.82168970      5.98837740   
    86       C          5.81017210     16.50241881      4.02314020   
    87       C          7.77540930     17.78692690      4.70386931   
    88       C          6.23798751     18.75948133      3.29665631   
    89       C          4.36725669     16.67394612      3.91501829   
    90       C          6.72229437     17.52372485      3.78136432   
    91       C          4.90670997     18.79822777      2.88462737   
    92       C          0.99256478     20.58245162      1.10040352   
    93       C          3.90937859     17.85163014      3.29908681   
    94       C          1.98989616     20.99691106      0.15380589   
    95       C          6.94913328     19.82288460      3.93284983   
    96       C          3.77421440     15.73139933      4.84941622   
    97       C          8.61560761     20.98079425      6.51202062   
    98       C          8.50189319     17.35911149      6.96093183   
    99       C          7.88353121     19.22984231      4.87539662   
   100       C          8.01718518     16.87480463      5.72517535   
   101       C          8.91392213     18.69038903      6.99967827   
   102       C          8.49946269     19.68772041      6.05308064   
   103       C          9.16827526     21.08827903      7.79081821   
   104       C         23.05146328     21.35143388      3.36525308   
   105       C         21.72096445     22.40169356      0.08910265   
   106       C         23.25838624     20.99448056      1.06165708   
   107       C         21.61284254     22.57322087      1.53201806   
   108       C         22.54724047     21.63143706      2.12506035   
   109       C          6.42147855      2.37908312     14.60563680   
   110       C          5.35363903      2.53402167     15.45215913   
   111       C          5.56056199      4.83761767     15.09520581   
   112       C          7.43129281      6.92315288     15.71356779   
   113       C          5.07625513      6.07337415     15.57991382   
   114       C          6.89183953      4.79887123     14.68317687   
   115       C          7.88917091      5.74546886     15.09763631   
   116       C         11.27634570      3.09218745     15.31874113   
   117       C          8.43329642      0.54563572      9.55288438   
   118       C         12.34418522      2.24566512     15.16380258   
   119       C          9.18224475      5.28652888     14.98149139   
   120       C          8.51557950      2.71633286     12.41129537   
   121       C          8.40809472      3.26900051     13.69009296   
   122       C          9.28972953      4.00773129     14.42882374   
   123       C         13.67468405      1.19540544     11.88765215   
   124       C         11.70944685      1.87613455     10.60314406   
   125       C         10.73689242      0.33871276      9.19593106   
   126       C         12.13726226      2.60261844     12.86020658   
   127       C         13.78280596      1.02387813     13.33056756   
   128       C         10.26653144      1.98425646     10.77467137   
   129       C         12.62156912      2.11791043     11.62445010   
   130       C         11.97264890      0.82301962      9.68063907   
   131       C         13.91645993      0.17409940     10.97552988   
   132       C         10.80598472      3.01464738     12.89895302   
   133       C          9.80865334      2.60018794     11.95235539   
   134       C          9.67348915      1.04985853      9.83288756   
   135       C         12.84840803      1.96566194     13.92360985   
   136       C         20.98079425      6.51202062      8.61560761   
   137       C         17.35911149      6.96093183      8.50189319   
   138       C         19.22984231      4.87539662      7.88353121   
   139       C         16.87480463      5.72517535      8.01718518   
   140       C         18.69038903      6.99967827      8.91392213   
   141       C         19.68772041      6.05308064      8.49946269   
   142       C         21.08827903      7.79081821      9.16827526   
   143       C          5.74546886     15.09763631      7.88917091   
   144       C          3.09218745     15.31874113     11.27634570   
   145       C          2.24566512     15.16380258     12.34418522   
   146       C          0.54563572      9.55288438      8.43329642   
   147       C          2.71633286     12.41129537      8.51557950   
   148       C          5.28652888     14.98149139      9.18224475   
   149       C          4.00773129     14.42882374      9.28972953   
   150       C          3.26900051     13.69009296      8.40809472   
   151       C          1.87613455     10.60314406     11.70944685   
   152       C          1.19540544     11.88765215     13.67468405   
   153       C          2.60261844     12.86020658     12.13726226   
   154       C          0.33871276      9.19593106     10.73689242   
   155       C          1.02387813     13.33056756     13.78280596   
   156       C          1.98425646     10.77467137     10.26653144   
   157       C          0.82301962      9.68063907     11.97264890   
   158       C          0.17409940     10.97552988     13.91645993   
   159       C          2.11791043     11.62445010     12.62156912   
   160       C          3.01464738     12.89895302     10.80598472   
   161       C          2.60018794     11.95235539      9.80865334   
   162       C          1.96566194     13.92360985     12.84840803   
   163       C          1.04985853      9.83288756      9.67348915   
   164       C         18.22002805      9.41946638      8.99146220   
   165       C         20.07690737     12.32075330     14.89073695   
   166       C         23.07489520      8.70636205      8.27835787   
   167       C         17.15218853      9.26452783      8.14493987   
   168       C         20.23184592     11.25291378     14.04421462   
   169       C         22.98435313     15.08151950     14.51488236   
   170       C         20.31412900      9.08221664     11.18580363   
   171       C         20.20664422      8.52954899      9.90700604   
   172       C         21.70555554     15.18900428     15.06755001   
   173       C         23.50799635      9.92241495     12.99395494   
   174       C         22.53544192     11.45983674     14.40116794   
   175       C         22.06508094      9.81429304     12.82242763   
   176       C         22.49669548     12.79111428     14.81319688   
   177       C         22.60453422      8.78390212     10.69814598   
   178       C         23.44329311     13.78844566     14.39873744   
   179       C         21.60720284      9.19836156     11.64474361   
   180       C         21.47203865     10.74869097     13.76421144   
   181       C          7.86569967     16.64796572      8.02433510   
   182       C          8.27835787     23.07489520      8.70636205   
   183       C          8.99146220     18.22002805      9.41946638   
   184       C         14.89073695     20.07690737     12.32075330   
   185       C          8.14493987     17.15218853      9.26452783   
   186       C         14.04421462     20.23184592     11.25291378   
   187       C         11.18580363     20.31412900      9.08221664   
   188       C         14.51488236     22.98435313     15.08151950   
   189       C          9.90700604     20.20664422      8.52954899   
   190       C         15.06755001     21.70555554     15.18900428   
   191       C         12.99395494     23.50799635      9.92241495   
   192       C         14.40116794     22.53544192     11.45983674   
   193       C         12.82242763     22.06508094      9.81429304   
   194       C         10.69814598     22.60453422      8.78390212   
   195       C         14.81319688     22.49669548     12.79111428   
   196       C         11.64474361     21.60720284      9.19836156   
   197       C         14.39873744     23.44329311     13.78844566   
   198       C         13.76421144     21.47203865     10.74869097   
   199       C         15.80628079     20.96682476     14.30736947   
   200       C         20.79001170     17.17562045     14.17763262   
   201       C         19.94348937     18.24345997     14.33257117   
   202       C         17.08507838     20.41415711     14.41485425   
   203       C         19.66424917     18.74768278     15.57276390   
   204       C         17.54401836     20.29801219     15.70792809   
   205       C          3.52019163      0.52218020     20.50491155   
   206       C          2.80708730      5.37707095     21.21801588   
   207       C          3.65360963      6.44491047     21.06307733   
   208       C          0.61272227      3.28297000     20.88076614   
   209       C          3.18294189      2.61630475     18.31057012   
   210       C          2.63027424      2.50881997     19.58936771   
   211       C          1.89154346      3.39045478     20.32809849   
   212       C          4.70386931      7.77540930     17.78692690   
   213       C          5.98837740      7.09468019     15.82168970   
   214       C          4.02314020      5.81017210     16.50241881   
   215       C          3.29665631      6.23798751     18.75948133   
   216       C          3.91501829      4.36725669     16.67394612   
   217       C          3.78136432      6.72229437     17.52372485   
   218       C          1.10040352      0.99256478     20.58245162   
   219       C          2.88462737      4.90670997     18.79822777   
   220       C          0.15380589      1.98989616     20.99691106   
   221       C          3.29908681      3.90937859     17.85163014   
   222       C          4.84941622      3.77421440     15.73139933   
   223       C          3.93284983      6.94913328     19.82288460   
   224       C          8.02433510      7.86569967     16.64796572   
   225       C         21.35143388      3.36525308     23.05146328   
   226       C         22.40169356      0.08910265     21.72096445   
   227       C         20.99448056      1.06165708     23.25838624   
   228       C         22.57322087      1.53201806     21.61284254   
   229       C         21.63143706      2.12506035     22.54724047   
   230       C          6.51202062      8.61560761     20.98079425   
   231       C          6.96093183      8.50189319     17.35911149   
   232       C          4.87539662      7.88353121     19.22984231   
   233       C          5.72517535      8.01718518     16.87480463   
   234       C          6.99967827      8.91392213     18.69038903   
   235       C          6.05308064      8.49946269     19.68772041   
   236       C          7.79081821      9.16827526     21.08827903   
   237       C          8.70636205      8.27835787     23.07489520   
   238       C         12.32075330     14.89073695     20.07690737   
   239       C          9.41946638      8.99146220     18.22002805   
   240       C         11.25291378     14.04421462     20.23184592   
   241       C          9.26452783      8.14493987     17.15218853   
   242       C          9.08221664     11.18580363     20.31412900   
   243       C         15.08151950     14.51488236     22.98435313   
   244       C         15.18900428     15.06755001     21.70555554   
   245       C          8.52954899      9.90700604     20.20664422   
   246       C          9.92241495     12.99395494     23.50799635   
   247       C         11.45983674     14.40116794     22.53544192   
   248       C          9.81429304     12.82242763     22.06508094   
   249       C          8.78390212     10.69814598     22.60453422   
   250       C         12.79111428     14.81319688     22.49669548   
   251       C          9.19836156     11.64474361     21.60720284   
   252       C         13.78844566     14.39873744     23.44329311   
   253       C         10.74869097     13.76421144     21.47203865   
   254       C         20.96682476     14.30736947     15.80628079   
   255       C         17.17562045     14.17763262     20.79001170   
   256       C         18.24345997     14.33257117     19.94348937   
   257       C         20.41415711     14.41485425     17.08507838   
   258       C         18.74768278     15.57276390     19.66424917   
   259       C         20.29801219     15.70792809     17.54401836   
   260       C          3.36525308     23.05146328     21.35143388   
   261       C          0.08910265     21.72096445     22.40169356   
   262       C          1.06165708     23.25838624     20.99448056   
   263       C          1.53201806     21.61284254     22.57322087   
   264       C          2.12506035     22.54724047     21.63143706   
   265       C         14.30736947     15.80628079     20.96682476   
   266       C         14.17763262     20.79001170     17.17562045   
   267       C         14.33257117     19.94348937     18.24345997   
   268       C         14.41485425     17.08507838     20.41415711   
   269       C         15.57276390     19.66424917     18.74768278   
   270       C         15.70792809     17.54401836     20.29801219   
   271       C         18.89322969     19.57395880     17.60872160   
   272       C         17.60872160     18.89322969     19.57395880   
   273       C         19.57395880     17.60872160     18.89322969   
   274       C         18.03653701     16.63616717     20.30044269   
   275       C         20.30044269     18.03653701     16.63616717   
   276       C         16.63616717     20.30044269     18.03653701   
   277       C         16.16580619     18.72170238     19.68208071   
   278       C         19.68208071     16.16580619     18.72170238   
   279       C         18.72170238     19.68208071     16.16580619   
   280       C         22.77407938     21.47918857     23.42299960   
   281       C         19.81573468     18.52084387     17.87192365   
   282       C         23.42299960     22.77407938     21.47918857   
   283       C         17.87192365     19.81573468     18.52084387   
   284       C         21.47918857     23.42299960     22.77407938   
   285       C         18.52084387     17.87192365     19.81573468   
   286       C         16.70525947     16.59742073     20.71247163   
   287       C         20.71247163     16.70525947     16.59742073   
   288       C         16.59742073     20.71247163     16.70525947   
   289       H         14.10806837      6.65202221      1.37934482   
   290       H          9.99483445      7.54573874      0.99433456   
   291       H         11.84291205      7.63698872      2.42092077   
   292       H         15.89410920      4.90494019      1.64646399   
   293       H         22.21775418      2.30951887      5.14652729   
   294       H         20.00734312      4.51992993      0.75274746   
   295       H         21.95063501      4.09555970      6.89360931   
   296       H         21.17617823      0.04436255      4.16156078   
   297       H         17.74218680      3.47835398      1.73771397   
   298       H          1.37934482     14.10806837      6.65202221   
   299       H          0.99433456      9.99483445      7.54573874   
   300       H          2.42092077     11.84291205      7.63698872   
   301       H         15.27690348     10.06083553      5.85491220   
   302       H         22.84435154      8.20879362      7.27861957   
   303       H         16.31847943     11.04580204      3.58975588   
   304       H         16.05136026     12.79288406      1.80371505   
   305       H         16.70348969     10.15208551      7.70298980   
   306       H          1.64646399     15.89410920      4.90494019   
   307       H          5.14652729     22.21775418      2.30951887   
   308       H          0.75274746     20.00734312      4.51992993   
   309       H          6.89360931     21.95063501      4.09555970   
   310       H          1.73771397     17.74218680      3.47835398   
   311       H          4.16156078     21.17617823      0.04436255   
   312       H          8.32019552     21.85938503      5.94363730   
   313       H         22.60276444     21.79338395      4.25281076   
   314       H          6.65202221      1.37934482     14.10806837   
   315       H          7.54573874      0.99433456      9.99483445   
   316       H          7.63698872      2.42092077     11.84291205   
   317       H         10.06083553      5.85491220     15.27690348   
   318       H         21.85938503      5.94363730      8.32019552   
   319       H          5.85491220     15.27690348     10.06083553   
   320       H         18.45057171     10.41920468      9.48903063   
   321       H         19.07716907     12.55129696     15.38830538   
   322       H         19.34428824     10.80421494     13.60226455   
   323       H         19.43553822      9.37762873     11.75418695   
   324       H          3.58975588     16.31847943     11.04580204   
   325       H          7.27861957     22.84435154      8.20879362   
   326       H          1.80371505     16.05136026     12.79288406   
   327       H          7.70298980     16.70348969     10.15208551   
   328       H         15.38830538     19.07716907     12.55129696   
   329       H          9.48903063     18.45057171     10.41920468   
   330       H         13.60226455     19.34428824     10.80421494   
   331       H         11.75418695     19.43553822      9.37762873   
   332       H         21.28758013     16.94507679     13.17789432   
   333       H         19.50153930     18.69215881     13.44501349   
   334       H         23.55273645     15.96011028     14.21947027   
   335       H         17.65346170     20.11874502     13.53626347   
   336       H          4.90494019      1.64646399     15.89410920   
   337       H          2.30951887      5.14652729     22.21775418   
   338       H          4.51992993      0.75274746     20.00734312   
   339       H          4.09555970      6.89360931     21.95063501   
   340       H          0.04436255      4.16156078     21.17617823   
   341       H          3.47835398      1.73771397     17.74218680   
   342       H          8.20879362      7.27861957     22.84435154   
   343       H         11.04580204      3.58975588     16.31847943   
   344       H         12.79288406      1.80371505     16.05136026   
   345       H         10.15208551      7.70298980     16.70348969   
   346       H         21.79338395      4.25281076     22.60276444   
   347       H          5.94363730      8.32019552     21.85938503   
   348       H         10.41920468      9.48903063     18.45057171   
   349       H         12.55129696     15.38830538     19.07716907   
   350       H         10.80421494     13.60226455     19.34428824   
   351       H          9.37762873     11.75418695     19.43553822   
   352       H         16.94507679     13.17789432     21.28758013   
   353       H         18.69215881     13.44501349     19.50153930   
   354       H         20.11874502     13.53626347     17.65346170   
   355       H         15.96011028     14.21947027     23.55273645   
   356       H          4.25281076     22.60276444     21.79338395   
   357       H         13.17789432     21.28758013     16.94507679   
   358       H         13.44501349     19.50153930     18.69215881   
   359       H         13.53626347     17.65346170     20.11874502   
   360       H         14.21947027     23.55273645     15.96011028   
   361      Tv         23.59709900      0.00000000      0.00000000   
   362      Tv          0.00000000     23.59709900      0.00000000   
   363      Tv          0.00000000      0.00000000     23.59709900   

                             CARTESIAN COORDINATES

   1    N       14.349962232     7.224558621     3.506104164
   2    N       20.249236982     2.393170586     1.325283871
   3    N       20.090994836     2.551412732     4.573990879
   4    N        3.506104164    14.349962232     7.224558621
   5    N       14.191720086    10.473265629     3.347862018
   6    N        4.573990879    20.090994836     2.551412732
   7    N        1.325283871    20.249236982     2.393170586
   8    N        7.224558621     3.506104164    14.349962232
   9    N       10.473265629     3.347862018    14.191720086
  10    N        3.347862018    14.191720086    10.473265629
  11    N       19.023108121     8.292445336     9.247136768
  12    N       21.203928414    13.123833371    15.146411518
  13    N       22.271815129     8.450687482     9.405378914
  14    N        9.405378914    22.271815129     8.450687482
  15    N        9.247136768    19.023108121     8.292445336
  16    N       15.146411518    21.203928414    13.123833371
  17    N       21.045686268    16.372540379    15.304653664
  18    N        2.393170586     1.325283871    20.249236982
  19    N        2.551412732     4.573990879    20.090994836
  20    N        8.450687482     9.405378914    22.271815129
  21    N       13.123833371    15.146411518    21.203928414
  22    N        8.292445336     9.247136768    19.023108121
  23    N       16.372540379    15.304653664    21.045686268
  24    N       15.304653664    21.045686268    16.372540379
  25    C       14.605636800     6.421478551     2.379083118
  26    C       15.452159129     5.353639030     2.534021670
  27    C       15.095205813     5.560561991     4.837617669
  28    C       15.713567792     7.431292805     6.923152876
  29    C       15.579913823     5.076255131     6.073374146
  30    C       14.683176867     6.891839525     4.798871232
  31    C       20.504911550     3.520191632     0.522180204
  32    C       21.218015882     2.807087300     5.377070949
  33    C       21.063077330     3.653609629     6.444910470
  34    C       20.880766143     0.612722273     3.282969995
  35    C       18.310570120     3.182941893     2.616304755
  36    C       19.589367706     2.630274237     2.508819969
  37    C       20.328098487     1.891543456     3.390454781
  38    C       16.502418812     4.023140200     5.810172104
  39    C       17.786926896     4.703869312     7.775409300
  40    C       15.821689700     5.988377396     7.094680188
  41    C       18.759481331     3.296656313     6.237987509
  42    C       16.673946124     3.915018292     4.367256695
  43    C       17.523724854     3.781364323     6.722294369
  44    C       20.582451617     1.100403518     0.992564775
  45    C       18.798227768     2.884627367     4.906709975
  46    C       20.996911064     0.153805891     1.989896164
  47    C       17.851630141     3.299086814     3.909378586
  48    C       15.731399333     4.849416218     3.774214402
  49    C       19.822884598     3.932849833     6.949133282
  50    C        2.379083118    14.605636800     6.421478551
  51    C        2.534021670    15.452159129     5.353639030
  52    C        4.837617669    15.095205813     5.560561991
  53    C        6.923152876    15.713567792     7.431292805
  54    C        6.073374146    15.579913823     5.076255131
  55    C        4.798871232    14.683176867     6.891839525
  56    C       15.097636314     7.889170914     5.745468859
  57    C       15.318741132    11.276345699     3.092187450
  58    C       15.163802580    12.344185220     2.245665121
  59    C        9.552884379     8.433296420     0.545635720
  60    C       12.411295370     8.515579505     2.716332857
  61    C       14.981491393     9.182244745     5.286528880
  62    C       14.428823737     9.289729531     4.007731294
  63    C       13.690092956     8.408094719     3.269000513
  64    C       11.887652146    13.674684050     1.195405438
  65    C       10.603144062    11.709446854     1.876134550
  66    C       12.860206581    12.137262259     2.602618437
  67    C        9.195931063    10.736892419     0.338712759
  68    C       10.774671374    10.266531445     1.984256458
  69    C       13.330567555    13.782805958     1.023878126
  70    C       10.975529881    13.916459927     0.174099396
  71    C       11.624450104    12.621569119     2.117910427
  72    C        9.680639073    11.972648896     0.823019619
  73    C       12.898953018    10.805984725     3.014647383
[...]
  293          H           0.196530        0.8035     0.80347
  294          H           0.196576        0.8034     0.80342
  295          H           0.175512        0.8245     0.82449
  296          H           0.184242        0.8158     0.81576
  297          H           0.185485        0.8145     0.81452
  298          H           0.196527        0.8035     0.80347
  299          H           0.175796        0.8242     0.82420
  300          H           0.184246        0.8158     0.81575
  301          H           0.185372        0.8146     0.81463
  302          H           0.196540        0.8035     0.80346
  303          H           0.197088        0.8029     0.80291
  304          H           0.175529        0.8245     0.82447
  305          H           0.175004        0.8250     0.82500
  306          H           0.175511        0.8245     0.82449
  307          H           0.196890        0.8031     0.80311
  308          H           0.196537        0.8035     0.80346
  309          H           0.175002        0.8250     0.82500
  310          H           0.183972        0.8160     0.81603
  311          H           0.185767        0.8142     0.81423
  312          H           0.185377        0.8146     0.81462
  313          H           0.175800        0.8242     0.82420
  314          H           0.196891        0.8031     0.80311
  315          H           0.175527        0.8245     0.82447
  316          H           0.185771        0.8142     0.81423
  317          H           0.183971        0.8160     0.81603
  318          H           0.183978        0.8160     0.81602
  319          H           0.185484        0.8145     0.81452
  320          H           0.196889        0.8031     0.80311
  321          H           0.197088        0.8029     0.80291
  322          H           0.175529        0.8245     0.82447
  323          H           0.185765        0.8142     0.81423
  324          H           0.196582        0.8034     0.80342
  325          H           0.197090        0.8029     0.80291
  326          H           0.174915        0.8251     0.82508
  327          H           0.175939        0.8241     0.82406
  328          H           0.196579        0.8034     0.80342
  329          H           0.197101        0.8029     0.80290
  330          H           0.174913        0.8251     0.82509
  331          H           0.184617        0.8154     0.81538
  332          H           0.197101        0.8029     0.80290
  333          H           0.175935        0.8241     0.82406
  334          H           0.184624        0.8154     0.81538
  335          H           0.185486        0.8145     0.81451
  336          H           0.175003        0.8250     0.82500
  337          H           0.197101        0.8029     0.80290
  338          H           0.197087        0.8029     0.80291
  339          H           0.175940        0.8241     0.82406
  340          H           0.184611        0.8154     0.81539
  341          H           0.185380        0.8146     0.81462
  342          H           0.196581        0.8034     0.80342
  343          H           0.196539        0.8035     0.80346
  344          H           0.175799        0.8242     0.82420
  345          H           0.175510        0.8245     0.82449
  346          H           0.174914        0.8251     0.82509
  347          H           0.185483        0.8145     0.81452
  348          H           0.196527        0.8035     0.80347
  349          H           0.196541        0.8035     0.80346
  350          H           0.175796        0.8242     0.82420
  351          H           0.184248        0.8158     0.81575
  352          H           0.196888        0.8031     0.80311
  353          H           0.175003        0.8250     0.82500
  354          H           0.185370        0.8146     0.81463
  355          H           0.185766        0.8142     0.81423
  356          H           0.175527        0.8245     0.82447
  357          H           0.196529        0.8035     0.80347
  358          H           0.175513        0.8245     0.82449
  359          H           0.183977        0.8160     0.81602
  360          H           0.184244        0.8158     0.81576


          ATOMIC ORBITAL ELECTRON POPULATIONS

     Atom    s        px        py        pz   
    1  N   1.50316   1.32125   1.16792   1.10179
    2  N   1.50418   1.32760   1.10280   1.16962
    3  N   1.50317   1.10170   1.32463   1.16879
    4  N   1.50317   1.10171   1.32466   1.16880
    5  N   1.50375   1.10244   1.16846   1.32324
    6  N   1.50430   1.16932   1.10290   1.32649
    7  N   1.50289   1.16838   1.32347   1.10149
    8  N   1.50430   1.16932   1.10290   1.32649
    9  N   1.50289   1.16838   1.32346   1.10149
   10  N   1.50417   1.32756   1.10279   1.16962
   11  N   1.50430   1.16932   1.10290   1.32648
   12  N   1.50375   1.10243   1.16846   1.32323
   13  N   1.50289   1.16838   1.32347   1.10150
   14  N   1.50375   1.10244   1.16846   1.32324
   15  N   1.50316   1.32123   1.16792   1.10178
   16  N   1.50417   1.32759   1.10280   1.16962
   17  N   1.50316   1.32124   1.16792   1.10179
   18  N   1.50376   1.10244   1.16846   1.32326
   19  N   1.50315   1.32122   1.16791   1.10178
   20  N   1.50417   1.32756   1.10279   1.16962
   21  N   1.50289   1.16838   1.32347   1.10149
   22  N   1.50317   1.10171   1.32466   1.16880
   23  N   1.50430   1.16932   1.10290   1.32649
   24  N   1.50317   1.10170   1.32463   1.16879
   25  C   1.09832   1.03026   0.99954   0.93467
   26  C   1.06888   1.02523   1.01523   1.08065
   27  C   1.06516   1.00145   0.96568   1.01892
   28  C   1.03799   1.15155   0.98604   1.04240
   29  C   1.04311   1.10978   1.03210   0.98464
   30  C   1.07411   1.01299   0.97427   0.82078
   31  C   1.09779   1.03243   0.93444   0.99967
   32  C   1.09871   0.93412   1.02706   0.99737
   33  C   1.06847   1.08099   1.02821   1.01748
   34  C   1.05877   1.18840   0.97365   1.06248
   35  C   1.05670   0.97524   1.21307   1.06410
   36  C   1.05049   0.96535   1.08998   0.84324
   37  C   1.04729   1.11567   0.97520   0.84576
   38  C   1.07603   0.91449   0.89952   0.94028
   39  C   1.07624   0.94077   0.91314   0.89729
   40  C   1.07531   0.90251   0.94021   0.91631
   41  C   1.06447   1.01881   1.00719   0.96658
   42  C   1.03778   1.04418   1.15452   0.98628
   43  C   1.04335   0.98401   1.10876   1.03227
   44  C   1.07499   1.00435   0.81825   0.97396
   45  C   1.07397   0.82085   1.01180   0.97413
   46  C   1.04952   0.92325   0.96285   0.94335
   47  C   1.05106   0.95894   0.90986   0.94341
   48  C   1.05692   0.95510   0.95613   0.94787
   49  C   1.05724   0.94704   0.95279   0.95387
   50  C   1.09871   0.93411   1.02705   0.99736
   51  C   1.06847   1.08099   1.02822   1.01749
   52  C   1.06447   1.01881   1.00722   0.96658
   53  C   1.03778   1.04418   1.15453   0.98628
   54  C   1.04336   0.98400   1.10876   1.03227
   55  C   1.07397   0.82084   1.01179   0.97413
   56  C   1.05081   0.91274   0.94322   0.96041
   57  C   1.09775   0.93485   1.00092   1.03353
   58  C   1.06916   1.08024   1.01328   1.02257
   59  C   1.06897   1.02379   1.08036   1.01421
   60  C   1.05832   0.97350   1.06296   1.19365
   61  C   1.05711   1.20821   1.06391   0.97440
   62  C   1.04982   1.09618   0.84371   0.96754
   63  C   1.04791   0.97344   0.84515   1.11153
   64  C   1.07558   0.94009   0.90195   0.91589
   65  C   1.07550   0.91540   0.94040   0.90110
   66  C   1.06527   1.01892   0.96551   1.00053
   67  C   1.06456   1.00592   1.01884   0.96641
   68  C   1.03709   1.04352   0.98594   1.15498
   69  C   1.03829   0.98638   1.15094   1.04282
   70  C   1.04341   1.03206   1.10841   0.98410
   71  C   1.04288   0.98484   1.03220   1.11065
   72  C   1.04299   1.11011   0.98432   1.03237
   73  C   1.07471   0.81925   0.97417   1.00855
   74  C   1.04993   0.96267   0.94318   0.92053
   75  C   1.05628   0.94832   0.95897   0.95794
   76  C   1.05622   0.95715   0.94776   0.95833
   77  C   1.05585   0.96043   0.94833   0.95918
   78  C   1.09745   1.00106   0.93482   1.03487
   79  C   1.09893   0.99699   1.02592   0.93405
   80  C   1.06923   1.01252   1.08005   1.02160
   81  C   1.05936   1.06207   0.97305   1.18171
   82  C   1.05621   1.06453   1.21894   0.97528
   83  C   1.05122   0.84248   1.08462   0.96325
   84  C   1.04647   0.84652   0.97746   1.12212
   85  C   1.07603   0.91448   0.89952   0.94028
   86  C   1.07624   0.94077   0.91314   0.89728
   87  C   1.07531   0.90253   0.94021   0.91632
   88  C   1.06482   0.96595   1.01883   1.00288
   89  C   1.03629   0.98569   1.04539   1.16014
   90  C   1.04281   1.03240   0.98464   1.11093
   91  C   1.07520   0.97396   0.81786   1.00366
   92  C   1.07369   0.97416   1.01410   0.82153
   93  C   1.04910   0.94335   0.96421   0.92712
   94  C   1.05143   0.94339   0.90704   0.95836
   95  C   1.05585   0.96046   0.94834   0.95920
   96  C   1.05724   0.94703   0.95278   0.95386
   97  C   1.05710   1.20829   1.06392   0.97440
   98  C   1.06516   1.00145   0.96568   1.01892
   99  C   1.03799   1.15151   0.98604   1.04239
  100  C   1.04311   1.10978   1.03210   0.98464
  101  C   1.07410   1.01302   0.97427   0.82079
  102  C   1.05082   0.91270   0.94322   0.96040
  103  C   1.04983   1.09609   0.84370   0.96750
  104  C   1.06838   1.01824   1.02912   1.08116
  105  C   1.07640   0.89692   0.91286   0.94067
  106  C   1.06471   0.96649   1.00635   1.01887
  107  C   1.03635   1.16026   1.04595   0.98597
  108  C   1.05751   0.95271   0.95173   0.94696
  109  C   1.09745   1.00106   0.93483   1.03488
  110  C   1.06923   1.01252   1.08005   1.02159
  111  C   1.06482   0.96595   1.01883   1.00287
  112  C   1.03629   0.98569   1.04539   1.16014
  113  C   1.04281   1.03240   0.98464   1.11093
  114  C   1.07520   0.97396   0.81786   1.00366
  115  C   1.04910   0.94335   0.96422   0.92713
  116  C   1.09893   0.99699   1.02591   0.93405
  117  C   1.06917   1.08024   1.01326   1.02254
  118  C   1.06838   1.01824   1.02913   1.08116
  119  C   1.05937   1.06207   0.97305   1.18170
  120  C   1.05621   1.06453   1.21895   0.97529
  121  C   1.05121   0.84248   1.08460   0.96325
  122  C   1.04647   0.84652   0.97747   1.12214
  123  C   1.07640   0.89691   0.91286   0.94067
  124  C   1.07558   0.94009   0.90197   0.91591
  125  C   1.06527   1.01892   0.96550   1.00050
  126  C   1.06471   0.96649   1.00635   1.01887
  127  C   1.03635   1.16026   1.04595   0.98597
  128  C   1.03830   0.98638   1.15090   1.04281
  129  C   1.04342   1.03205   1.10840   0.98410
  130  C   1.04288   0.98485   1.03220   1.11065
  131  C   1.04299   1.11011   0.98431   1.03237
  132  C   1.07369   0.97416   1.01411   0.82153
  133  C   1.05143   0.94339   0.90704   0.95836
  134  C   1.05628   0.94833   0.95900   0.95796
  135  C   1.05751   0.95270   0.95172   0.94696
  136  C   1.05935   1.06208   0.97306   1.18184
  137  C   1.06482   0.96595   1.01883   1.00290
  138  C   1.03629   0.98569   1.04539   1.16012
  139  C   1.04281   1.03240   0.98464   1.11092
  140  C   1.07519   0.97396   0.81787   1.00369
  141  C   1.04911   0.94335   0.96419   0.92704
  142  C   1.04648   0.84651   0.97742   1.12200
  143  C   1.05106   0.95893   0.90986   0.94341
  144  C   1.09779   1.03245   0.93445   0.99968
  145  C   1.06897   1.02378   1.08036   1.01421
  146  C   1.06838   1.01822   1.02910   1.08115
  147  C   1.05877   1.18838   0.97366   1.06248
  148  C   1.05670   0.97524   1.21309   1.06410
  149  C   1.05049   0.96536   1.08999   0.84324
  150  C   1.04728   1.11566   0.97520   0.84577
  151  C   1.07640   0.89692   0.91287   0.94067
  152  C   1.07550   0.91540   0.94040   0.90110
  153  C   1.06456   1.00591   1.01884   0.96641
  154  C   1.06471   0.96649   1.00634   1.01887
  155  C   1.03709   1.04352   0.98594   1.15498
  156  C   1.03635   1.16024   1.04594   0.98597
  157  C   1.04341   1.03206   1.10841   0.98410
  158  C   1.04288   0.98484   1.03220   1.11064
  159  C   1.04299   1.11012   0.98432   1.03237
  160  C   1.07499   1.00438   0.81826   0.97396
  161  C   1.04953   0.92326   0.96285   0.94335
  162  C   1.05622   0.95716   0.94776   0.95834
  163  C   1.05751   0.95273   0.95175   0.94696
  164  C   1.09746   1.00105   0.93482   1.03485
  165  C   1.09775   0.93484   1.00091   1.03353
  166  C   1.09893   0.99701   1.02594   0.93405
  167  C   1.06923   1.01254   1.08006   1.02162
  168  C   1.06916   1.08024   1.01329   1.02257
  169  C   1.05831   0.97350   1.06296   1.19369
  170  C   1.05622   1.06452   1.21883   0.97528
  171  C   1.05120   0.84250   1.08473   0.96330
  172  C   1.04792   0.97343   0.84514   1.11149
  173  C   1.07559   0.94009   0.90194   0.91589
  174  C   1.06527   1.01892   0.96551   1.00053
  175  C   1.03829   0.98638   1.15095   1.04283
  176  C   1.07471   0.81925   0.97417   1.00856
  177  C   1.07369   0.97416   1.01407   0.82152
  178  C   1.04993   0.96267   0.94318   0.92051
  179  C   1.05142   0.94339   0.90709   0.95837
  180  C   1.05629   0.94832   0.95897   0.95793
  181  C   1.05693   0.95508   0.95611   0.94787
  182  C   1.09775   0.93485   1.00093   1.03356
  183  C   1.09833   1.03024   0.99953   0.93467
  184  C   1.09779   1.03244   0.93444   0.99967
  185  C   1.06887   1.02525   1.01524   1.08065
  186  C   1.06897   1.02379   1.08036   1.01421
  187  C   1.05832   0.97349   1.06295   1.19356
  188  C   1.05877   1.18836   0.97365   1.06248
  189  C   1.04790   0.97348   0.84516   1.11163
  190  C   1.04728   1.11571   0.97521   0.84577
  191  C   1.07550   0.91540   0.94040   0.90110
  192  C   1.06456   1.00594   1.01884   0.96642
  193  C   1.03709   1.04352   0.98593   1.15499
  194  C   1.07471   0.81924   0.97417   1.00853
  195  C   1.07499   1.00435   0.81825   0.97396
  196  C   1.04992   0.96269   0.94318   0.92059
  197  C   1.04952   0.92327   0.96286   0.94335
  198  C   1.05622   0.95715   0.94775   0.95833
  199  C   1.05050   0.96534   1.08995   0.84324
  200  C   1.09832   1.03027   0.99954   0.93467
  201  C   1.06888   1.02522   1.01522   1.08065
  202  C   1.05670   0.97524   1.21311   1.06411
  203  C   1.05692   0.95511   0.95614   0.94787
  204  C   1.05106   0.95893   0.90984   0.94341
  205  C   1.09775   0.93484   1.00093   1.03357
  206  C   1.09833   1.03023   0.99953   0.93467
  207  C   1.06887   1.02525   1.01524   1.08065
  208  C   1.05833   0.97348   1.06295   1.19351
  209  C   1.05710   1.20834   1.06392   0.97440
  210  C   1.04984   1.09603   0.84369   0.96748
  211  C   1.04790   0.97350   0.84516   1.11168
  212  C   1.07604   0.91448   0.89951   0.94028
  213  C   1.07624   0.94077   0.91314   0.89728
  214  C   1.07531   0.90253   0.94021   0.91633
  215  C   1.06516   1.00145   0.96568   1.01892
  216  C   1.03800   1.15150   0.98604   1.04239
  217  C   1.04311   1.10977   1.03210   0.98464
  218  C   1.07472   0.81923   0.97417   1.00850
  219  C   1.07410   1.01303   0.97427   0.82079
  220  C   1.04992   0.96270   0.94318   0.92061
  221  C   1.05082   0.91267   0.94322   0.96039
  222  C   1.05585   0.96046   0.94834   0.95921
  223  C   1.05693   0.95508   0.95610   0.94787
  224  C   1.05724   0.94703   0.95279   0.95387
  225  C   1.06896   1.02380   1.08037   1.01423
  226  C   1.07550   0.91540   0.94040   0.90109
  227  C   1.06456   1.00596   1.01884   0.96642
  228  C   1.03708   1.04352   0.98594   1.15501
  229  C   1.05622   0.95714   0.94775   0.95832
  230  C   1.05670   0.97524   1.21307   1.06410
  231  C   1.06447   1.01881   1.00722   0.96658
  232  C   1.03778   1.04419   1.15454   0.98628
  233  C   1.04336   0.98400   1.10876   1.03227
  234  C   1.07398   0.82084   1.01178   0.97413
  235  C   1.05106   0.95893   0.90987   0.94341
  236  C   1.05049   0.96537   1.09002   0.84324
  237  C   1.09779   1.03244   0.93445   0.99968
  238  C   1.09893   0.99701   1.02594   0.93405
  239  C   1.09871   0.93411   1.02705   0.99737
  240  C   1.06838   1.01822   1.02910   1.08115
  241  C   1.06847   1.08099   1.02822   1.01748
  242  C   1.05877   1.18841   0.97366   1.06249
  243  C   1.05622   1.06452   1.21884   0.97528
  244  C   1.05120   0.84249   1.08471   0.96329
  245  C   1.04729   1.11564   0.97519   0.84576
  246  C   1.07640   0.89692   0.91287   0.94067
  247  C   1.06471   0.96649   1.00634   1.01887
  248  C   1.03635   1.16024   1.04594   0.98597
  249  C   1.07499   1.00439   0.81826   0.97396
  250  C   1.07369   0.97416   1.01408   0.82152
  251  C   1.04953   0.92324   0.96285   0.94335
  252  C   1.05143   0.94339   0.90709   0.95837
  253  C   1.05751   0.95273   0.95175   0.94696
  254  C   1.04981   1.09622   0.84371   0.96755
  255  C   1.09746   1.00104   0.93482   1.03484
  256  C   1.06923   1.01254   1.08006   1.02162
  257  C   1.05711   1.20817   1.06391   0.97439
  258  C   1.05585   0.96043   0.94833   0.95917
  259  C   1.05081   0.91276   0.94322   0.96042
  260  C   1.06916   1.08024   1.01327   1.02254
  261  C   1.07558   0.94009   0.90198   0.91591
  262  C   1.06527   1.01893   0.96550   1.00052
  263  C   1.03830   0.98639   1.15090   1.04281
  264  C   1.05628   0.94833   0.95900   0.95797
  265  C   1.04648   0.84651   0.97743   1.12202
  266  C   1.09871   0.93411   1.02705   0.99737
  267  C   1.06847   1.08099   1.02821   1.01748
  268  C   1.05935   1.06208   0.97306   1.18183
  269  C   1.05724   0.94704   0.95279   0.95386
  270  C   1.04911   0.94335   0.96419   0.92705
  271  C   1.07603   0.91449   0.89953   0.94028
  272  C   1.07624   0.94077   0.91314   0.89728
  273  C   1.07531   0.90251   0.94021   0.91631
  274  C   1.06482   0.96595   1.01883   1.00291
  275  C   1.06516   1.00144   0.96568   1.01892
  276  C   1.06447   1.01881   1.00719   0.96658
  277  C   1.03629   0.98569   1.04539   1.16013
  278  C   1.03799   1.15155   0.98604   1.04241
  279  C   1.03778   1.04417   1.15451   0.98628
  280  C   1.04341   1.03205   1.10840   0.98410
  281  C   1.04311   1.10979   1.03210   0.98464
  282  C   1.04288   0.98485   1.03220   1.11065
  283  C   1.04336   0.98400   1.10876   1.03227
  284  C   1.04299   1.11011   0.98431   1.03237
  285  C   1.04281   1.03240   0.98464   1.11092
  286  C   1.07519   0.97396   0.81787   1.00368
  287  C   1.07411   1.01298   0.97427   0.82078
  288  C   1.07397   0.82085   1.01181   0.97413
  289  H   0.80290
  290  H   0.82508
  291  H   0.81538
  292  H   0.82406
  293  H   0.80347
  294  H   0.80342
  295  H   0.82449
  296  H   0.81576
  297  H   0.81452
  298  H   0.80347
  299  H   0.82420
  300  H   0.81575
  301  H   0.81463
  302  H   0.80346
  303  H   0.80291
  304  H   0.82447
  305  H   0.82500
  306  H   0.82449
  307  H   0.80311
  308  H   0.80346
  309  H   0.82500
  310  H   0.81603
  311  H   0.81423
  312  H   0.81462
  313  H   0.82420
  314  H   0.80311
  315  H   0.82447
  316  H   0.81423
  317  H   0.81603
  318  H   0.81602
  319  H   0.81452
  320  H   0.80311
  321  H   0.80291
  322  H   0.82447
  323  H   0.81423
  324  H   0.80342
  325  H   0.80291
  326  H   0.82508
  327  H   0.82406
  328  H   0.80342
  329  H   0.80290
  330  H   0.82509
  331  H   0.81538
  332  H   0.80290
  333  H   0.82406
  334  H   0.81538
  335  H   0.81451
  336  H   0.82500
  337  H   0.80290
  338  H   0.80291
  339  H   0.82406
  340  H   0.81539
  341  H   0.81462
  342  H   0.80342
  343  H   0.80346
  344  H   0.82420
  345  H   0.82449
  346  H   0.82509
  347  H   0.81452
  348  H   0.80347
  349  H   0.80346
  350  H   0.82420
  351  H   0.81575
  352  H   0.80311
  353  H   0.82500
  354  H   0.81463
  355  H   0.81423
  356  H   0.82447
  357  H   0.80347
  358  H   0.82449
  359  H   0.81602
  360  H   0.81576

 **********************
 *                    *
 * JOB ENDED NORMALLY *
 *                    *
 **********************



 TOTAL JOB TIME:           325.84 SECONDS

 == MOPAC DONE ==
