 *******************************************************************************
 **                                                                           **
 **                              MOPAC v22.1.0                                **
 **                                                                           **
 *******************************************************************************
 **          Digital Object Identifier (DOI): 10.5281/zenodo.6511958          **
 **    Visit the DOI location for information on how to cite this program.    **
 *******************************************************************************

                              PM7 CALCULATION RESULTS

 *******************************************************************************
 *  CALCULATION DONE:                                Thu Feb  1 11:00:23 2024  *
 *  PM7        - The PM7 Hamiltonian to be used
 *  NOOPT      - DO NOT OPTIMIZE ANY COORDINATES
 *
 *
 *
 *                 CHARGE ON SYSTEM = 0
 *
 *
 *
 *  T=         - A TIME OF 172800.0 SECONDS REQUESTED
 *  DUMP=N     - RESTART FILE WRITTEN EVERY 7200.0 SECONDS REQUESTED
 *******************************************************************************
PM7 CHARGE=0 NOOPT


   ATOM   CHEMICAL          X               Y               Z
  NUMBER   SYMBOL      (ANGSTROMS)     (ANGSTROMS)     (ANGSTROMS)

     1       N         15.92312422      4.83864214      4.13833812   
     2       N         19.73737087      3.98522197      7.09933173   
     3       N         16.77656827      7.79942087      7.95272803   
     4       N         13.76841975     13.06828286      1.98377690   
     5       N          9.95417310     10.10743250      1.13033286   
     6       N          7.09921235     19.73813490      3.98507872   
     7       N          4.13855300     15.92314810      4.83864214   
     8       N          7.95275190     16.77659214      7.79946863   
     9       N         22.74556714     21.89214697      1.83039812   
    10       N         10.10697886      1.13026123      9.95407759   
    11       N         13.06828286      1.98375303     13.76837200   
    12       N          1.98377690     13.76846750     13.06828286   
    13       N          1.13035673      9.95419697     10.10740862   
    14       N         22.04535862     10.80759327     13.92170303   
    15       N         13.92172690     22.04538250     10.80764102   
    16       N          4.83864214      4.13855300     15.92314810   
    17       N          3.98519810      7.09930786     19.73739475   
    18       N          7.79939700      7.95272803     16.77659214   
    19       N         21.89207534      1.83066076     22.74559102   
    20       N         10.80761714     13.92172690     22.04535862   
    21       N          1.83113827     22.74563877     21.89200372   
    22       N         19.89070190     19.03728173     16.07640750   
    23       N         19.03728173     16.07638362     19.89070190   
    24       N         16.07647913     19.89067803     19.03728173   
    25       C         14.78935323      6.13414848      2.54459792   
    26       C         15.56823284      5.02122115      2.79051969   
    27       C         15.14933018      5.55787975      5.04153954   
    28       C         15.89158416      7.44400423      6.90818128   
    29       C         15.79889791      5.11147205      6.16607055   
    30       C         14.99852999      6.90075587      4.72687905   
    31       C         15.38787429      7.90846211      5.63745813   
    32       C         14.53758187      7.15508196      3.44383594   
    33       C         20.75830436      3.42435321      0.16517348   
    34       C         21.33130208      2.85140323      5.80380152   
    35       C         21.08533256      3.63028284      6.91670497   
    36       C         21.25418292      0.82078181      3.23738103   
    37       C         18.72770681      3.34728180      2.73159397   
    38       C         19.92864071      2.69527872      2.45372624   
    39       C         20.60217985      2.02173958      3.51524876   
    40       C         16.71284349      4.12205476      5.88877585   
    41       C         17.98719578      4.77484574      7.81584749   
    42       C         16.06005251      6.04926965      7.16310426   
    43       C         18.83436046      3.21138018      6.38007025   
    44       C         16.96771872      3.95363416      4.49394577   
    45       C         17.70990107      3.86094791      6.82650182   
    46       C         20.96743337      1.24209595      0.93180475   
    47       C         19.14902095      3.06055612      5.03717025   
    48       C         21.35682542      0.33149300      1.93951098   
    49       C         18.23841800      3.44992429      4.02948789   
    50       C         20.50650912      2.52511518      1.18610696   
    51       C         20.43206406      2.59960799      4.78286804   
    52       C          2.54462179     14.78932936      6.13414848   
    53       C          2.79054356     15.56823284      5.02124503   
    54       C          5.04156342     15.14930630      5.55790363   
    55       C          6.90818128     15.89160803      7.44402810   
    56       C          6.16592730     15.79889791      5.11147205   
    57       C          4.72690293     14.99845837      6.90077975   
    58       C          5.63748200     15.38785042      7.90848598   
    59       C          3.44385982     14.53753412      7.15508196   
    60       C         15.36230321     11.77277652      3.11759564   
    61       C         15.11638144     12.88567997      2.33869216   
    62       C          9.59925784      8.75951856      0.94772997   
    63       C         12.75873181      8.70054509      2.62174095   
    64       C         15.28523180      9.20633216      5.14821706   
    65       C         14.63322872      9.48422376      3.94725929   
    66       C         13.95968958      8.42267737      3.27372015   
    67       C         12.01824465     13.78482249      1.19410539   
    68       C         10.74384461     11.85767922      1.84687249   
    69       C         12.86538546     12.34902137      2.75759482   
    70       C          9.18035518     11.01053842      0.41107137   
    71       C         10.99874372     10.46289690      2.01531697   
    72       C         13.41300310     13.95326697      0.93920628   
    73       C         11.08047093     14.04597709      0.19702393   
    74       C         11.74094995     12.79542907      2.10802709   
    75       C          9.82992291     12.13499780      0.85747907   
    76       C         13.18004595     11.00612137      2.90846663   
    77       C         12.26944300      9.99843902      2.51909846   
    78       C         14.46308906     10.75184304      3.36939088   
    79       C          5.80380152     21.33127821      2.85137936   
    80       C          0.16517348     20.75830436      3.42435321   
    81       C          6.91670497     21.08538031      3.63025897   
    82       C          2.73159397     18.72770681      3.34725792   
    83       C          3.23738103     21.25418292      0.82078181   
    84       C          3.51524876     20.60217985      2.02173958   
    85       C          2.45372624     19.92866458      2.69527872   
    86       C          7.16308039     16.06005251      6.04926965   
    87       C          5.88868035     16.71277186      4.12212638   
    88       C          7.81596687     17.98683764      4.77501287   
    89       C          6.38007025     18.83433658      3.21140405   
    90       C          4.49392190     16.96771872      3.95365803   
    91       C          6.82643020     17.70951906      3.86090016   
    92       C          5.03717025     19.14899707      3.06053224   
    93       C          0.93180475     20.96745724      1.24207207   
    94       C          4.02946402     18.23841800      3.44990042   
    95       C          1.93951098     21.35682542      0.33149300   
    96       C          4.78286804     20.43204018      2.59958412   
    97       C          1.18610696     20.50650912      2.52511518   
    98       C          8.59069208     21.14430603      6.78975681   
    99       C          8.72659370     17.49585363      6.89638658   
   100       C          7.98429197     19.38197810      5.02976872   
   101       C          8.07700209     17.04944593      5.77195107   
   102       C          8.87744163     18.83872975      7.21104707   
   103       C          8.48804958     19.84643598      6.30046800   
   104       C         22.92817003     21.53720784      3.17843144   
   105       C         22.02905138     22.68177074      0.08034240   
   106       C         23.46482863     21.11830518      0.92743546   
   107       C         21.86058303     22.93669372      1.47505310   
   108       C          6.13414848      2.54462179     14.78935323   
   109       C          5.02122115      2.79054356     15.56823284   
   110       C          5.55790363      5.04156342     15.14930630   
   111       C          7.44402810      6.90818128     15.89160803   
   112       C          5.11147205      6.16595118     15.79889791   
   113       C          6.90077975      4.72690293     14.99848224   
   114       C          7.90848598      5.63748200     15.38785042   
   115       C          7.15508196      3.44385982     14.53755799   
   116       C         11.77277652      3.11759564     15.36230321   
   117       C          8.75951856      0.94772997      9.59925784   
   118       C         12.88567997      2.33869216     15.11638144   
   119       C          9.20635603      5.14819319     15.28520792   
   120       C          8.70056897      2.62171708     12.75873181   
   121       C          8.42270124      3.27372015     13.95968958   
   122       C          9.48422376      3.94725929     14.63322872   
   123       C         13.78479862      1.19412926     12.01826853   
   124       C         11.85789411      1.84696800     10.74394012   
   125       C         11.01051454      0.41109525      9.18035518   
   126       C         12.34902137      2.75759482     12.86538546   
   127       C         13.95326697      0.93920628     13.41300310   
   128       C         10.46292077      2.01531697     10.99874372   
   129       C         12.79545295      2.10802709     11.74097383   
   130       C         12.13521269      0.85745520      9.82992291   
   131       C         14.04597709      0.19702393     11.08047093   
   132       C         11.00614525      2.90846663     13.18002207   
   133       C          9.99843902      2.51907458     12.26944300   
   134       C         10.75184304      3.36939088     14.46306518   
   135       C         21.14430603      6.78975681      8.59069208   
   136       C         17.49585363      6.89641046      8.72654595   
   137       C         19.38195423      5.02976872      7.98431584   
   138       C         17.04942205      5.77199882      8.07700209   
   139       C         18.83872975      7.21109482      8.87737001   
   140       C         19.84643598      6.30049187      8.48802571   
   141       C          3.11757177     15.36232708     11.77277652   
   142       C          2.33869216     15.11638144     12.88570385   
   143       C          0.94777773      9.59932947      8.75963794   
   144       C          2.62169320     12.75870794      8.70059284   
   145       C          5.14819319     15.28520792      9.20635603   
   146       C          3.94723542     14.63320485      9.48424763   
   147       C          3.27369628     13.95966571      8.42270124   
   148       C          1.84694412     10.74384461     11.85767922   
   149       C          1.19410539     12.01817302     13.78487024   
   150       C          2.75759482     12.86536158     12.34904525   
   151       C          0.41099974      9.18028355     11.01051454   
   152       C          0.93918240     13.41300310     13.95329084   
   153       C          2.01536472     10.99881535     10.46292077   
   154       C          0.85747907      9.82989904     12.13497393   
   155       C          0.19704780     11.08047093     14.04600096   
   156       C          2.10802709     11.74087832     12.79545295   
   157       C          2.90839501     13.18002207     11.00614525   
   158       C          2.51902683     12.26944300      9.99846289   
   159       C          3.36936701     14.46306518     10.75184304   
   160       C         21.42219763      7.99069071      9.24271903   
   161       C         18.07209848      9.39337596      9.08657064   
   162       C         20.45149904     12.10314735     15.05554564   
   163       C         23.71072652      8.82037823      8.51354904   
   164       C         16.95919503      9.14740644      8.30766716   
   165       C         20.69746856     10.99022003     14.27664216   
   166       C         23.05511819     15.17533103     14.55966708   
   167       C         20.63854284      9.31623292     11.11719206   
   168       C         20.36065124      8.66425372      9.91623429   
   169       C         21.85418429     15.45319876     15.21167015   
   170       C         23.79567698     10.09102976     13.13205539   
   171       C         22.94844066     11.52687863     14.69556870   
   172       C         22.40087077      9.92260916     12.87715628   
   173       C         22.63378018     12.86977863     14.84636888   
   174       C         22.94407137      9.02955499     10.69583018   
   175       C         23.54435925     13.87746098     14.45702458   
   176       C         21.93641289      9.41889929     11.60645700   
   177       C         19.09305584      8.49411406      9.33834201   
   178       C         21.35076094     13.12405696     15.30731701   
   179       C         22.68981692      8.56858299      9.41283482   
   180       C         21.18064515     14.39167624     15.88520929   
   181       C          9.24269515     21.42217376      7.99071458   
   182       C          8.51359679     23.71072652      8.82035436   
   183       C          9.08657064     18.07209848      9.39332821   
   184       C         15.05554564     20.45154679     12.10312348   
   185       C          8.30766716     16.95919503      9.14740644   
   186       C         14.27664216     20.69746856     10.99022003   
   187       C         11.11716819     20.63851897      9.31623292   
   188       C         14.55966708     23.05511819     15.17533103   
   189       C          9.91621042     20.36065124      8.66422985   
   190       C         15.21167015     21.85416042     15.45322263   
   191       C         13.13205539     23.79562922     10.09107751   
   192       C         14.69554482     22.94846454     11.52687863   
   193       C         12.87715628     22.40084690      9.92263303   
   194       C         10.69587793     22.94409525      9.02950724   
   195       C         14.84641663     22.63380405     12.86975475   
   196       C         11.60645700     21.93638902      9.41887542   
   197       C         14.45702458     23.54440700     13.87746098   
   198       C          9.41283482     22.68979304      8.56855912   
   199       C          9.33836588     19.09303196      8.49409018   
   200       C         15.30734088     21.35078482     13.12405696   
   201       C         15.88520929     21.18062128     14.39167624   
   202       C         21.02449677     17.74175152     14.48254792   
   203       C         20.24559328     18.85465497     14.72851744   
   204       C         17.08614319     20.52861820     14.66956784   
   205       C         21.27629201     16.72081804     15.38178594   
   206       C          3.42435321      0.16517348     20.75830436   
   207       C          2.85137936      5.80380152     21.33127821   
   208       C          3.63028284      6.91670497     21.08533256   
   209       C          0.82078181      3.23738103     21.25418292   
   210       C          3.34725792      2.73159397     18.72770681   
   211       C          2.69525485      2.45372624     19.92866458   
   212       C          2.02173958      3.51524876     20.60220372   
   213       C          4.77486961      7.81584749     17.98719578   
   214       C          6.04929353      7.16310426     16.06007638   
   215       C          4.12212638      5.88868035     16.71279574   
   216       C          3.21135630      6.38004637     18.83433658   
   217       C          3.95365803      4.49394577     16.96771872   
   218       C          3.86094791      6.82647795     17.70990107   
   219       C          1.24207207      0.93180475     20.96745724   
   220       C          3.06053224      5.03717025     19.14899707   
   221       C          0.33149300      1.93951098     21.35682542   
   222       C          3.44990042      4.02946402     18.23841800   
   223       C          2.52511518      1.18610696     20.50653299   
   224       C          2.59958412      4.78286804     20.43204018   
   225       C         21.53720784      3.17843144     22.92817003   
   226       C         22.68181849      0.08019915     22.02900363   
   227       C         21.11830518      0.92741158     23.46482863   
   228       C         22.93669372      1.47505310     21.86058303   
   229       C          6.78975681      8.59069208     21.14430603   
   230       C          6.89641046      8.72656982     17.49585363   
   231       C          5.02976872      7.98429197     19.38195423   
   232       C          5.77199882      8.07700209     17.04942205   
   233       C          7.21107095      8.87741776     18.83872975   
   234       C          6.30046800      8.48804958     19.84643598   
   235       C          7.99071458      9.24269515     21.42217376   
   236       C          8.82035436      8.51359679     23.71072652   
   237       C         12.10312348     15.05554564     20.45152292   
   238       C          9.39335208      9.08657064     18.07209848   
   239       C         10.99022003     14.27664216     20.69749244   
   240       C          9.14740644      8.30766716     16.95919503   
   241       C          9.31623292     11.11716819     20.63851897   
   242       C         15.17533103     14.55969095     23.05511819   
   243       C         15.45322263     15.21167015     21.85416042   
   244       C          8.66422985      9.91623429     20.36065124   
   245       C         10.09107751     13.13205539     23.79562922   
   246       C         11.52690251     14.69556870     22.94846454   
   247       C          9.92263303     12.87715628     22.40084690   
   248       C          9.02950724     10.69587793     22.94409525   
   249       C         12.86977863     14.84641663     22.63380405   
   250       C          9.41887542     11.60645700     21.93638902   
   251       C         13.87746098     14.45702458     23.54440700   
   252       C          8.56855912      9.41283482     22.68979304   
   253       C         13.12405696     15.30734088     21.35078482   
   254       C          8.49411406      9.33834201     19.09303196   
   255       C         14.39167624     15.88520929     21.18064515   
   256       C         17.74175152     14.48254792     21.02449677   
   257       C         18.85465497     14.72849356     20.24561716   
   258       C         20.52864208     14.66954397     17.08614319   
   259       C         16.72081804     15.38178594     21.27626813   
   260       C          3.17845531     22.92814615     21.53718397   
   261       C          0.07996039     22.02890813     22.68191399   
   262       C          0.92741158     23.46480475     21.11830518   
   263       C          1.47505310     21.86058303     22.93669372   
   264       C         14.48252404     21.02449677     17.74175152   
   265       C         14.72846969     20.24561716     18.85465497   
   266       C         14.66956784     17.08614319     20.52861820   
   267       C         15.38178594     21.27626813     16.72081804   
   268       C         19.10105426     19.75382137     17.82667810   
   269       C         17.82663035     19.10105426     19.75379749   
   270       C         19.75382137     17.82667810     19.10103039   
   271       C         18.31802025     16.97948954     20.66451982   
   272       C         20.66451982     18.31799637     16.97948954   
   273       C         16.97948954     20.66449595     18.31802025   
   274       C         16.43189577     18.84613128     19.92226584   
   275       C         19.92226584     16.43189577     18.84613128   
   276       C         18.84613128     19.92226584     16.43189577   
   277       C         23.01839705     21.76787291     23.67892383   
   278       C         20.01497596     18.76442795     18.10394893   
   279       C         23.67854181     23.01844480     21.76782516   
   280       C         18.10392505     20.01495209     18.76442795   
   281       C         21.76784904     23.67880445     23.01842093   
   282       C         18.76442795     18.10394893     20.01495209   
   283       C         16.97512025     16.66482905     20.81532001   
   284       C         20.81534388     16.97509637     16.66480518   
   285       C         16.66480518     20.81532001     16.97512025   
   286       C         15.96743789     17.57540813     20.42597571   
   287       C         20.42597571     15.96741402     17.57540813   
   288       C         17.57540813     20.42597571     15.96743789   
   289       H         14.39766909      6.25613045      1.53359681   
   290       H          9.91878901      7.95863333      1.68103049   
   291       H         15.88774014      4.28796838      1.98709565   
   292       H         12.18024263      7.86801633      2.22747821   
   293       H         22.34230319      2.45974297      5.68184343   
   294       H         20.36666797      4.43535432      0.28713157   
   295       H         21.88875659      3.94981401      7.64998162   
   296       H         21.64842179      0.24226876      4.06993367   
   297       H         18.14919376      3.74149679      1.89904133   
   298       H          1.53362068     14.39769297      6.25610657   
   299       H          1.98716728     15.88776401      4.28794451   
   300       H          1.68105437      9.91878901      7.95863333   
   301       H          2.22747821     12.18021876      7.86801633   
   302       H         15.67944679     10.03888479      5.72673012   
   303       H         23.58864905      8.42862247      7.50254793   
   304       H         16.37332819     11.65081843      3.50923203   
   305       H         15.91726667     13.61898049      2.01916099   
   306       H          5.68184343     22.34227932      2.45974297   
   307       H          0.28713157     20.36666797      4.43535432   
   308       H          7.65000549     21.88873272      3.94981401   
   309       H          1.89904133     18.14919376      3.74149679   
   310       H          4.06993367     21.64842179      0.24226876   
   311       H          8.19645321     21.97685867      6.21124376   
   312       H         22.19486951     21.85673901      3.97931667   
   313       H          6.25610657      1.53362068     14.39769297   
   314       H          4.28794451      1.98716728     15.88776401   
   315       H          7.95863333      1.68103049      9.91878901   
   316       H          7.86801633      2.22747821     12.18021876   
   317       H         10.03890867      5.72670624     15.67944679   
   318       H         21.97683479      6.21124376      8.19645321   
   319       H          5.72670624     15.67944679     10.03890867   
   320       H         18.19408045     10.40435319      9.47823091   
   321       H         19.44052181     12.22512933     15.44720591   
   322       H         16.22594226      9.95085435      7.98815986   
   323       H         19.89658333     10.25694338     13.95713486   
   324       H         19.80599021      9.71047179     11.69568124   
   325       H          3.50925591     16.37332819     11.65079455   
   326       H          7.50259568     23.58876843      8.42871797   
   327       H          2.01916099     15.91726667     13.61898049   
   328       H         15.44718203     19.44054568     12.22508157   
   329       H          9.47820703     18.19405657     10.40432932   
   330       H         13.95711099     19.89658333     10.25691951   
   331       H          7.98813599     16.22589451      9.95078272   
   332       H         11.69568124     19.80596633      9.71047179   
   333       H         21.41618091     17.61976955     13.47154681   
   334       H         19.92608599     19.58793162     13.92506953   
   335       H         23.63363124     16.00785979     14.16542821   
   336       H         17.66468012     20.13440321     13.83701521   
   337       H          2.45974297      5.68184343     22.34227932   
   338       H          4.43535432      0.28713157     20.36666797   
   339       H          3.94981401      7.65000549     21.88873272   
   340       H          0.24226876      4.06993367     21.64842179   
   341       H          3.74149679      1.89904133     18.14919376   
   342       H          8.42871797      7.50259568     23.58876843   
   343       H         11.65081843      3.50923203     16.37330432   
   344       H         13.61898049      2.01916099     15.91726667   
   345       H         21.85673901      3.97931667     22.19486951   
   346       H          6.21124376      8.19645321     21.97685867   
   347       H         10.40435319      9.47820703     18.19405657   
   348       H         12.22510545     15.44720591     19.44052181   
   349       H          9.95080659      7.98813599     16.22591838   
   350       H         10.25691951     13.95711099     19.89658333   
   351       H          9.71047179     11.69568124     19.80596633   
   352       H         17.61976955     13.47154681     21.41618091   
   353       H         19.58793162     13.92506953     19.92610986   
   354       H         20.13440321     13.83699133     17.66465624   
   355       H         16.00788367     14.16542821     23.63363124   
   356       H          3.97931667     22.19486951     21.85673901   
   357       H         13.47154681     21.41618091     17.61976955   
   358       H         13.92502178     19.92610986     19.58790774   
   359       H         13.83701521     17.66468012     20.13440321   
   360       H         14.16542821     23.63363124     16.00788367   
   361      Tv         23.87590000      0.00000000      0.00000000   
   362      Tv          0.00000000     23.87590000      0.00000000   
   363      Tv          0.00000000      0.00000000     23.87590000   


                   THE SYSTEM IS A SOLID


                UNIT CELL TRANSLATION VECTORS

              X                Y              Z
    T1 =    23.8759000      0.0000000      0.0000000
    T2 =     0.0000000     23.8759000      0.0000000
    T3 =     0.0000000      0.0000000     23.8759000


          CARTESIAN COORDINATES 

    NO.       ATOM           X           Y           Z

     1         N         15.9231      4.8386      4.1383
     2         N         19.7374      3.9852      7.0993
     3         N         16.7766      7.7994      7.9527
     4         N         13.7684     13.0683      1.9838
     5         N          9.9542     10.1074      1.1303
     6         N          7.0992     19.7381      3.9851
     7         N          4.1386     15.9231      4.8386
     8         N          7.9528     16.7766      7.7995
     9         N         22.7456     21.8921      1.8304
    10         N         10.1070      1.1303      9.9541
    11         N         13.0683      1.9838     13.7684
    12         N          1.9838     13.7685     13.0683
    13         N          1.1304      9.9542     10.1074
    14         N         22.0454     10.8076     13.9217
    15         N         13.9217     22.0454     10.8076
    16         N          4.8386      4.1386     15.9231
    17         N          3.9852      7.0993     19.7374
    18         N          7.7994      7.9527     16.7766
    19         N         21.8921      1.8307     22.7456
    20         N         10.8076     13.9217     22.0454
    21         N          1.8311     22.7456     21.8920
    22         N         19.8907     19.0373     16.0764
    23         N         19.0373     16.0764     19.8907
    24         N         16.0765     19.8907     19.0373
    25         C         14.7894      6.1341      2.5446
    26         C         15.5682      5.0212      2.7905
    27         C         15.1493      5.5579      5.0415
    28         C         15.8916      7.4440      6.9082
    29         C         15.7989      5.1115      6.1661
    30         C         14.9985      6.9008      4.7269
    31         C         15.3879      7.9085      5.6375
    32         C         14.5376      7.1551      3.4438
    33         C         20.7583      3.4244      0.1652
    34         C         21.3313      2.8514      5.8038
    35         C         21.0853      3.6303      6.9167
    36         C         21.2542      0.8208      3.2374
    37         C         18.7277      3.3473      2.7316
    38         C         19.9286      2.6953      2.4537
    39         C         20.6022      2.0217      3.5152
    40         C         16.7128      4.1221      5.8888
    41         C         17.9872      4.7748      7.8158
    42         C         16.0601      6.0493      7.1631
    43         C         18.8344      3.2114      6.3801
    44         C         16.9677      3.9536      4.4939
    45         C         17.7099      3.8609      6.8265
    46         C         20.9674      1.2421      0.9318
    47         C         19.1490      3.0606      5.0372
    48         C         21.3568      0.3315      1.9395
    49         C         18.2384      3.4499      4.0295
    50         C         20.5065      2.5251      1.1861
    51         C         20.4321      2.5996      4.7829
    52         C          2.5446     14.7893      6.1341
    53         C          2.7905     15.5682      5.0212
    54         C          5.0416     15.1493      5.5579
    55         C          6.9082     15.8916      7.4440
    56         C          6.1659     15.7989      5.1115
    57         C          4.7269     14.9985      6.9008
    58         C          5.6375     15.3879      7.9085
    59         C          3.4439     14.5375      7.1551
    60         C         15.3623     11.7728      3.1176
    61         C         15.1164     12.8857      2.3387
    62         C          9.5993      8.7595      0.9477
    63         C         12.7587      8.7005      2.6217
    64         C         15.2852      9.2063      5.1482
    65         C         14.6332      9.4842      3.9473
    66         C         13.9597      8.4227      3.2737
    67         C         12.0182     13.7848      1.1941
    68         C         10.7438     11.8577      1.8469
    69         C         12.8654     12.3490      2.7576
    70         C          9.1804     11.0105      0.4111
    71         C         10.9987     10.4629      2.0153
    72         C         13.4130     13.9533      0.9392
    73         C         11.0805     14.0460      0.1970
    74         C         11.7409     12.7954      2.1080
    75         C          9.8299     12.1350      0.8575
    76         C         13.1800     11.0061      2.9085
    77         C         12.2694      9.9984      2.5191
    78         C         14.4631     10.7518      3.3694
    79         C          5.8038     21.3313      2.8514
    80         C          0.1652     20.7583      3.4244
    81         C          6.9167     21.0854      3.6303
    82         C          2.7316     18.7277      3.3473
    83         C          3.2374     21.2542      0.8208
    84         C          3.5152     20.6022      2.0217
    85         C          2.4537     19.9287      2.6953
    86         C          7.1631     16.0601      6.0493
    87         C          5.8887     16.7128      4.1221
    88         C          7.8160     17.9868      4.7750
    89         C          6.3801     18.8343      3.2114
    90         C          4.4939     16.9677      3.9537
    91         C          6.8264     17.7095      3.8609
    92         C          5.0372     19.1490      3.0605
    93         C          0.9318     20.9675      1.2421
    94         C          4.0295     18.2384      3.4499
    95         C          1.9395     21.3568      0.3315
    96         C          4.7829     20.4320      2.5996
    97         C          1.1861     20.5065      2.5251
    98         C          8.5907     21.1443      6.7898
    99         C          8.7266     17.4959      6.8964
   100         C          7.9843     19.3820      5.0298
   101         C          8.0770     17.0494      5.7720
   102         C          8.8774     18.8387      7.2110
   103         C          8.4880     19.8464      6.3005
   104         C         22.9282     21.5372      3.1784
   105         C         22.0291     22.6818      0.0803
   106         C         23.4648     21.1183      0.9274
   107         C         21.8606     22.9367      1.4751
   108         C          6.1341      2.5446     14.7894
   109         C          5.0212      2.7905     15.5682
   110         C          5.5579      5.0416     15.1493
   111         C          7.4440      6.9082     15.8916
   112         C          5.1115      6.1660     15.7989
   113         C          6.9008      4.7269     14.9985
   114         C          7.9085      5.6375     15.3879
   115         C          7.1551      3.4439     14.5376
   116         C         11.7728      3.1176     15.3623
   117         C          8.7595      0.9477      9.5993
   118         C         12.8857      2.3387     15.1164
   119         C          9.2064      5.1482     15.2852
   120         C          8.7006      2.6217     12.7587
   121         C          8.4227      3.2737     13.9597
   122         C          9.4842      3.9473     14.6332
   123         C         13.7848      1.1941     12.0183
   124         C         11.8579      1.8470     10.7439
   125         C         11.0105      0.4111      9.1804
   126         C         12.3490      2.7576     12.8654
   127         C         13.9533      0.9392     13.4130
   128         C         10.4629      2.0153     10.9987
   129         C         12.7955      2.1080     11.7410
   130         C         12.1352      0.8575      9.8299
   131         C         14.0460      0.1970     11.0805
   132         C         11.0061      2.9085     13.1800
   133         C          9.9984      2.5191     12.2694
   134         C         10.7518      3.3694     14.4631
   135         C         21.1443      6.7898      8.5907
   136         C         17.4959      6.8964      8.7265
   137         C         19.3820      5.0298      7.9843
   138         C         17.0494      5.7720      8.0770
   139         C         18.8387      7.2111      8.8774
   140         C         19.8464      6.3005      8.4880
   141         C          3.1176     15.3623     11.7728
   142         C          2.3387     15.1164     12.8857
   143         C          0.9478      9.5993      8.7596
   144         C          2.6217     12.7587      8.7006
   145         C          5.1482     15.2852      9.2064
   146         C          3.9472     14.6332      9.4842
   147         C          3.2737     13.9597      8.4227
   148         C          1.8469     10.7438     11.8577
   149         C          1.1941     12.0182     13.7849
   150         C          2.7576     12.8654     12.3490
   151         C          0.4110      9.1803     11.0105
   152         C          0.9392     13.4130     13.9533
   153         C          2.0154     10.9988     10.4629
   154         C          0.8575      9.8299     12.1350
   155         C          0.1970     11.0805     14.0460
   156         C          2.1080     11.7409     12.7955
   157         C          2.9084     13.1800     11.0061
   158         C          2.5190     12.2694      9.9985
   159         C          3.3694     14.4631     10.7518
   160         C         21.4222      7.9907      9.2427
   161         C         18.0721      9.3934      9.0866
   162         C         20.4515     12.1031     15.0555
   163         C         23.7107      8.8204      8.5135
   164         C         16.9592      9.1474      8.3077
   165         C         20.6975     10.9902     14.2766
   166         C         23.0551     15.1753     14.5597
   167         C         20.6385      9.3162     11.1172
   168         C         20.3607      8.6643      9.9162
   169         C         21.8542     15.4532     15.2117
   170         C         23.7957     10.0910     13.1321
   171         C         22.9484     11.5269     14.6956
   172         C         22.4009      9.9226     12.8772
   173         C         22.6338     12.8698     14.8464
   174         C         22.9441      9.0296     10.6958
   175         C         23.5444     13.8775     14.4570
   176         C         21.9364      9.4189     11.6065
   177         C         19.0931      8.4941      9.3383
   178         C         21.3508     13.1241     15.3073
   179         C         22.6898      8.5686      9.4128
   180         C         21.1806     14.3917     15.8852
   181         C          9.2427     21.4222      7.9907
   182         C          8.5136     23.7107      8.8204
   183         C          9.0866     18.0721      9.3933
   184         C         15.0555     20.4515     12.1031
   185         C          8.3077     16.9592      9.1474
   186         C         14.2766     20.6975     10.9902
   187         C         11.1172     20.6385      9.3162
   188         C         14.5597     23.0551     15.1753
   189         C          9.9162     20.3607      8.6642
   190         C         15.2117     21.8542     15.4532
   191         C         13.1321     23.7956     10.0911
   192         C         14.6955     22.9485     11.5269
   193         C         12.8772     22.4008      9.9226
   194         C         10.6959     22.9441      9.0295
   195         C         14.8464     22.6338     12.8698
   196         C         11.6065     21.9364      9.4189
   197         C         14.4570     23.5444     13.8775
   198         C          9.4128     22.6898      8.5686
   199         C          9.3384     19.0930      8.4941
   200         C         15.3073     21.3508     13.1241
   201         C         15.8852     21.1806     14.3917
   202         C         21.0245     17.7418     14.4825
   203         C         20.2456     18.8547     14.7285
   204         C         17.0861     20.5286     14.6696
   205         C         21.2763     16.7208     15.3818
   206         C          3.4244      0.1652     20.7583
   207         C          2.8514      5.8038     21.3313
   208         C          3.6303      6.9167     21.0853
   209         C          0.8208      3.2374     21.2542
   210         C          3.3473      2.7316     18.7277
   211         C          2.6953      2.4537     19.9287
   212         C          2.0217      3.5152     20.6022
   213         C          4.7749      7.8158     17.9872
   214         C          6.0493      7.1631     16.0601
   215         C          4.1221      5.8887     16.7128
   216         C          3.2114      6.3800     18.8343
   217         C          3.9537      4.4939     16.9677
   218         C          3.8609      6.8265     17.7099
   219         C          1.2421      0.9318     20.9675
   220         C          3.0605      5.0372     19.1490
   221         C          0.3315      1.9395     21.3568
   222         C          3.4499      4.0295     18.2384
   223         C          2.5251      1.1861     20.5065
   224         C          2.5996      4.7829     20.4320
   225         C         21.5372      3.1784     22.9282
   226         C         22.6818      0.0802     22.0290
   227         C         21.1183      0.9274     23.4648
   228         C         22.9367      1.4751     21.8606
   229         C          6.7898      8.5907     21.1443
   230         C          6.8964      8.7266     17.4959
   231         C          5.0298      7.9843     19.3820
   232         C          5.7720      8.0770     17.0494
   233         C          7.2111      8.8774     18.8387
   234         C          6.3005      8.4880     19.8464
   235         C          7.9907      9.2427     21.4222
   236         C          8.8204      8.5136     23.7107
   237         C         12.1031     15.0555     20.4515
   238         C          9.3934      9.0866     18.0721
   239         C         10.9902     14.2766     20.6975
   240         C          9.1474      8.3077     16.9592
   241         C          9.3162     11.1172     20.6385
   242         C         15.1753     14.5597     23.0551
   243         C         15.4532     15.2117     21.8542
   244         C          8.6642      9.9162     20.3607
   245         C         10.0911     13.1321     23.7956
   246         C         11.5269     14.6956     22.9485
   247         C          9.9226     12.8772     22.4008
   248         C          9.0295     10.6959     22.9441
   249         C         12.8698     14.8464     22.6338
   250         C          9.4189     11.6065     21.9364
   251         C         13.8775     14.4570     23.5444
   252         C          8.5686      9.4128     22.6898
   253         C         13.1241     15.3073     21.3508
   254         C          8.4941      9.3383     19.0930
   255         C         14.3917     15.8852     21.1806
   256         C         17.7418     14.4825     21.0245
   257         C         18.8547     14.7285     20.2456
   258         C         20.5286     14.6695     17.0861
   259         C         16.7208     15.3818     21.2763
   260         C          3.1785     22.9281     21.5372
   261         C          0.0800     22.0289     22.6819
   262         C          0.9274     23.4648     21.1183
   263         C          1.4751     21.8606     22.9367
   264         C         14.4825     21.0245     17.7418
   265         C         14.7285     20.2456     18.8547
   266         C         14.6696     17.0861     20.5286
   267         C         15.3818     21.2763     16.7208
   268         C         19.1011     19.7538     17.8267
   269         C         17.8266     19.1011     19.7538
   270         C         19.7538     17.8267     19.1010
   271         C         18.3180     16.9795     20.6645
   272         C         20.6645     18.3180     16.9795
   273         C         16.9795     20.6645     18.3180
   274         C         16.4319     18.8461     19.9223
   275         C         19.9223     16.4319     18.8461
   276         C         18.8461     19.9223     16.4319
   277         C         23.0184     21.7679     23.6789
   278         C         20.0150     18.7644     18.1039
   279         C         23.6785     23.0184     21.7678
   280         C         18.1039     20.0150     18.7644
   281         C         21.7678     23.6788     23.0184
   282         C         18.7644     18.1039     20.0150
   283         C         16.9751     16.6648     20.8153
   284         C         20.8153     16.9751     16.6648
   285         C         16.6648     20.8153     16.9751
   286         C         15.9674     17.5754     20.4260
   287         C         20.4260     15.9674     17.5754
   288         C         17.5754     20.4260     15.9674
   289         H         14.3977      6.2561      1.5336
   290         H          9.9188      7.9586      1.6810
   291         H         15.8877      4.2880      1.9871
   292         H         12.1802      7.8680      2.2275
   293         H         22.3423      2.4597      5.6818
   294         H         20.3667      4.4354      0.2871
   295         H         21.8888      3.9498      7.6500
   296         H         21.6484      0.2423      4.0699
   297         H         18.1492      3.7415      1.8990
   298         H          1.5336     14.3977      6.2561
   299         H          1.9872     15.8878      4.2879
   300         H          1.6811      9.9188      7.9586
   301         H          2.2275     12.1802      7.8680
   302         H         15.6794     10.0389      5.7267
   303         H         23.5886      8.4286      7.5025
   304         H         16.3733     11.6508      3.5092
   305         H         15.9173     13.6190      2.0192
   306         H          5.6818     22.3423      2.4597
   307         H          0.2871     20.3667      4.4354
   308         H          7.6500     21.8887      3.9498
   309         H          1.8990     18.1492      3.7415
   310         H          4.0699     21.6484      0.2423
   311         H          8.1965     21.9769      6.2112
   312         H         22.1949     21.8567      3.9793
   313         H          6.2561      1.5336     14.3977
   314         H          4.2879      1.9872     15.8878
   315         H          7.9586      1.6810      9.9188
   316         H          7.8680      2.2275     12.1802
   317         H         10.0389      5.7267     15.6794
   318         H         21.9768      6.2112      8.1965
   319         H          5.7267     15.6794     10.0389
   320         H         18.1941     10.4044      9.4782
   321         H         19.4405     12.2251     15.4472
   322         H         16.2259      9.9509      7.9882
   323         H         19.8966     10.2569     13.9571
   324         H         19.8060      9.7105     11.6957
   325         H          3.5093     16.3733     11.6508
   326         H          7.5026     23.5888      8.4287
   327         H          2.0192     15.9173     13.6190
   328         H         15.4472     19.4405     12.2251
   329         H          9.4782     18.1941     10.4043
   330         H         13.9571     19.8966     10.2569
   331         H          7.9881     16.2259      9.9508
   332         H         11.6957     19.8060      9.7105
   333         H         21.4162     17.6198     13.4715
   334         H         19.9261     19.5879     13.9251
   335         H         23.6336     16.0079     14.1654
   336         H         17.6647     20.1344     13.8370
   337         H          2.4597      5.6818     22.3423
   338         H          4.4354      0.2871     20.3667
   339         H          3.9498      7.6500     21.8887
   340         H          0.2423      4.0699     21.6484
   341         H          3.7415      1.8990     18.1492
   342         H          8.4287      7.5026     23.5888
   343         H         11.6508      3.5092     16.3733
   344         H         13.6190      2.0192     15.9173
   345         H         21.8567      3.9793     22.1949
   346         H          6.2112      8.1965     21.9769
   347         H         10.4044      9.4782     18.1941
   348         H         12.2251     15.4472     19.4405
   349         H          9.9508      7.9881     16.2259
   350         H         10.2569     13.9571     19.8966
   351         H          9.7105     11.6957     19.8060
   352         H         17.6198     13.4715     21.4162
   353         H         19.5879     13.9251     19.9261
   354         H         20.1344     13.8370     17.6647
   355         H         16.0079     14.1654     23.6336
   356         H          3.9793     22.1949     21.8567
   357         H         13.4715     21.4162     17.6198
   358         H         13.9250     19.9261     19.5879
   359         H         13.8370     17.6647     20.1344
   360         H         14.1654     23.6336     16.0079

 General Reference for PM7:
 "Optimization of Parameters for Semiempirical Methods VI: More Modifications to the 
 NDDO Approximations and Re-optimization of Parameters", J. J. P. Stewart, J. Mol. Mod., 1:32, 19 (2013)
 https://link.springer.com/article/10.1007/s00894-012-1667-x

           Empirical Formula: C264 H72 N24  =   360 atoms



      RHF CALCULATION, NO. OF DOUBLY OCCUPIED LEVELS = 624


 -------------------------------------------------------------------------------
 PM7 CHARGE=0 NOOPT




     NO PARAMETERS MARKED FOR OPTIMIZATION, SO 1SCF WAS USED  
     SCF FIELD WAS ACHIEVED                                   


                              PM7 CALCULATION
                                                       MOPAC v22.1.0 Linux
                                                       Thu Feb  1 11:02:18 2024




          FINAL HEAT OF FORMATION =       3868.65430 KCAL/MOL =   16186.44959 KJ/MOL
          H.o.F. per unit cell    =        161.19393 KCAL, for 24 unit cells, unit cell = C11 H3 N1



          IONIZATION POTENTIAL    =          7.409174 EV
          HOMO LUMO ENERGIES (EV) =         -7.409 -2.335
          NO. OF FILLED LEVELS    =        624
          MOLECULAR WEIGHT        =       3579.6336

                   THE SYSTEM IS A SOLID


                UNIT CELL TRANSLATION VECTORS

              X                Y              Z
    T1 =    23.8759000      0.0000000      0.0000000
    T2 =     0.0000000     23.8759000      0.0000000
    T3 =     0.0000000      0.0000000     23.8759000

          VOLUME OF UNIT CELL     =      13610.662 CUBIC ANGSTROMS

          DENSITY                 =          0.437 GRAMS/CC
                              A   =         23.876 ANGSTROMS
                              B   =         23.876 ANGSTROMS
                              C   =         23.876 ANGSTROMS
                            ALPHA =         90.000 DEGREES
                            BETA  =         90.000 DEGREES
                            GAMMA =         90.000 DEGREES



          SCF CALCULATIONS        =          1

          WALL-CLOCK TIME         =          1 MINUTE AND 54.656 SECONDS
          COMPUTATION TIME        =          1 MINUTE AND 54.630 SECONDS




   ATOM   CHEMICAL          X               Y               Z
  NUMBER   SYMBOL      (ANGSTROMS)     (ANGSTROMS)     (ANGSTROMS)

     1       N         15.92312422      4.83864214      4.13833812   
     2       N         19.73737087      3.98522197      7.09933173   
     3       N         16.77656827      7.79942087      7.95272803   
     4       N         13.76841975     13.06828286      1.98377690   
     5       N          9.95417310     10.10743250      1.13033286   
     6       N          7.09921235     19.73813490      3.98507872   
     7       N          4.13855300     15.92314810      4.83864214   
     8       N          7.95275190     16.77659214      7.79946863   
     9       N         22.74556714     21.89214697      1.83039812   
    10       N         10.10697886      1.13026123      9.95407759   
    11       N         13.06828286      1.98375303     13.76837200   
    12       N          1.98377690     13.76846750     13.06828286   
    13       N          1.13035673      9.95419697     10.10740862   
    14       N         22.04535862     10.80759327     13.92170303   
    15       N         13.92172690     22.04538250     10.80764102   
    16       N          4.83864214      4.13855300     15.92314810   
    17       N          3.98519810      7.09930786     19.73739475   
    18       N          7.79939700      7.95272803     16.77659214   
    19       N         21.89207534      1.83066076     22.74559102   
    20       N         10.80761714     13.92172690     22.04535862   
    21       N          1.83113827     22.74563877     21.89200372   
    22       N         19.89070190     19.03728173     16.07640750   
    23       N         19.03728173     16.07638362     19.89070190   
    24       N         16.07647913     19.89067803     19.03728173   
    25       C         14.78935323      6.13414848      2.54459792   
    26       C         15.56823284      5.02122115      2.79051969   
    27       C         15.14933018      5.55787975      5.04153954   
    28       C         15.89158416      7.44400423      6.90818128   
    29       C         15.79889791      5.11147205      6.16607055   
    30       C         14.99852999      6.90075587      4.72687905   
    31       C         15.38787429      7.90846211      5.63745813   
    32       C         14.53758187      7.15508196      3.44383594   
    33       C         20.75830436      3.42435321      0.16517348   
    34       C         21.33130208      2.85140323      5.80380152   
    35       C         21.08533256      3.63028284      6.91670497   
    36       C         21.25418292      0.82078181      3.23738103   
    37       C         18.72770681      3.34728180      2.73159397   
    38       C         19.92864071      2.69527872      2.45372624   
    39       C         20.60217985      2.02173958      3.51524876   
    40       C         16.71284349      4.12205476      5.88877585   
    41       C         17.98719578      4.77484574      7.81584749   
    42       C         16.06005251      6.04926965      7.16310426   
    43       C         18.83436046      3.21138018      6.38007025   
    44       C         16.96771872      3.95363416      4.49394577   
    45       C         17.70990107      3.86094791      6.82650182   
    46       C         20.96743337      1.24209595      0.93180475   
    47       C         19.14902095      3.06055612      5.03717025   
    48       C         21.35682542      0.33149300      1.93951098   
    49       C         18.23841800      3.44992429      4.02948789   
    50       C         20.50650912      2.52511518      1.18610696   
    51       C         20.43206406      2.59960799      4.78286804   
    52       C          2.54462179     14.78932936      6.13414848   
    53       C          2.79054356     15.56823284      5.02124503   
    54       C          5.04156342     15.14930630      5.55790363   
    55       C          6.90818128     15.89160803      7.44402810   
    56       C          6.16592730     15.79889791      5.11147205   
    57       C          4.72690293     14.99845837      6.90077975   
    58       C          5.63748200     15.38785042      7.90848598   
    59       C          3.44385982     14.53753412      7.15508196   
    60       C         15.36230321     11.77277652      3.11759564   
    61       C         15.11638144     12.88567997      2.33869216   
    62       C          9.59925784      8.75951856      0.94772997   
    63       C         12.75873181      8.70054509      2.62174095   
    64       C         15.28523180      9.20633216      5.14821706   
    65       C         14.63322872      9.48422376      3.94725929   
    66       C         13.95968958      8.42267737      3.27372015   
    67       C         12.01824465     13.78482249      1.19410539   
    68       C         10.74384461     11.85767922      1.84687249   
    69       C         12.86538546     12.34902137      2.75759482   
    70       C          9.18035518     11.01053842      0.41107137   
    71       C         10.99874372     10.46289690      2.01531697   
    72       C         13.41300310     13.95326697      0.93920628   
    73       C         11.08047093     14.04597709      0.19702393   
    74       C         11.74094995     12.79542907      2.10802709   
    75       C          9.82992291     12.13499780      0.85747907   
    76       C         13.18004595     11.00612137      2.90846663   
    77       C         12.26944300      9.99843902      2.51909846   
    78       C         14.46308906     10.75184304      3.36939088   
    79       C          5.80380152     21.33127821      2.85137936   
    80       C          0.16517348     20.75830436      3.42435321   
    81       C          6.91670497     21.08538031      3.63025897   
    82       C          2.73159397     18.72770681      3.34725792   
    83       C          3.23738103     21.25418292      0.82078181   
    84       C          3.51524876     20.60217985      2.02173958   
    85       C          2.45372624     19.92866458      2.69527872   
    86       C          7.16308039     16.06005251      6.04926965   
    87       C          5.88868035     16.71277186      4.12212638   
    88       C          7.81596687     17.98683764      4.77501287   
    89       C          6.38007025     18.83433658      3.21140405   
    90       C          4.49392190     16.96771872      3.95365803   
    91       C          6.82643020     17.70951906      3.86090016   
    92       C          5.03717025     19.14899707      3.06053224   
    93       C          0.93180475     20.96745724      1.24207207   
    94       C          4.02946402     18.23841800      3.44990042   
    95       C          1.93951098     21.35682542      0.33149300   
    96       C          4.78286804     20.43204018      2.59958412   
    97       C          1.18610696     20.50650912      2.52511518   
    98       C          8.59069208     21.14430603      6.78975681   
    99       C          8.72659370     17.49585363      6.89638658   
   100       C          7.98429197     19.38197810      5.02976872   
   101       C          8.07700209     17.04944593      5.77195107   
   102       C          8.87744163     18.83872975      7.21104707   
   103       C          8.48804958     19.84643598      6.30046800   
   104       C         22.92817003     21.53720784      3.17843144   
   105       C         22.02905138     22.68177074      0.08034240   
   106       C         23.46482863     21.11830518      0.92743546   
   107       C         21.86058303     22.93669372      1.47505310   
   108       C          6.13414848      2.54462179     14.78935323   
   109       C          5.02122115      2.79054356     15.56823284   
   110       C          5.55790363      5.04156342     15.14930630   
   111       C          7.44402810      6.90818128     15.89160803   
   112       C          5.11147205      6.16595118     15.79889791   
   113       C          6.90077975      4.72690293     14.99848224   
   114       C          7.90848598      5.63748200     15.38785042   
   115       C          7.15508196      3.44385982     14.53755799   
   116       C         11.77277652      3.11759564     15.36230321   
   117       C          8.75951856      0.94772997      9.59925784   
   118       C         12.88567997      2.33869216     15.11638144   
   119       C          9.20635603      5.14819319     15.28520792   
   120       C          8.70056897      2.62171708     12.75873181   
   121       C          8.42270124      3.27372015     13.95968958   
   122       C          9.48422376      3.94725929     14.63322872   
   123       C         13.78479862      1.19412926     12.01826853   
   124       C         11.85789411      1.84696800     10.74394012   
   125       C         11.01051454      0.41109525      9.18035518   
   126       C         12.34902137      2.75759482     12.86538546   
   127       C         13.95326697      0.93920628     13.41300310   
   128       C         10.46292077      2.01531697     10.99874372   
   129       C         12.79545295      2.10802709     11.74097383   
   130       C         12.13521269      0.85745520      9.82992291   
   131       C         14.04597709      0.19702393     11.08047093   
   132       C         11.00614525      2.90846663     13.18002207   
   133       C          9.99843902      2.51907458     12.26944300   
   134       C         10.75184304      3.36939088     14.46306518   
   135       C         21.14430603      6.78975681      8.59069208   
   136       C         17.49585363      6.89641046      8.72654595   
   137       C         19.38195423      5.02976872      7.98431584   
   138       C         17.04942205      5.77199882      8.07700209   
   139       C         18.83872975      7.21109482      8.87737001   
   140       C         19.84643598      6.30049187      8.48802571   
   141       C          3.11757177     15.36232708     11.77277652   
   142       C          2.33869216     15.11638144     12.88570385   
   143       C          0.94777773      9.59932947      8.75963794   
   144       C          2.62169320     12.75870794      8.70059284   
   145       C          5.14819319     15.28520792      9.20635603   
   146       C          3.94723542     14.63320485      9.48424763   
   147       C          3.27369628     13.95966571      8.42270124   
   148       C          1.84694412     10.74384461     11.85767922   
   149       C          1.19410539     12.01817302     13.78487024   
   150       C          2.75759482     12.86536158     12.34904525   
   151       C          0.41099974      9.18028355     11.01051454   
   152       C          0.93918240     13.41300310     13.95329084   
   153       C          2.01536472     10.99881535     10.46292077   
   154       C          0.85747907      9.82989904     12.13497393   
   155       C          0.19704780     11.08047093     14.04600096   
   156       C          2.10802709     11.74087832     12.79545295   
   157       C          2.90839501     13.18002207     11.00614525   
   158       C          2.51902683     12.26944300      9.99846289   
   159       C          3.36936701     14.46306518     10.75184304   
   160       C         21.42219763      7.99069071      9.24271903   
   161       C         18.07209848      9.39337596      9.08657064   
   162       C         20.45149904     12.10314735     15.05554564   
   163       C         23.71072652      8.82037823      8.51354904   
   164       C         16.95919503      9.14740644      8.30766716   
   165       C         20.69746856     10.99022003     14.27664216   
   166       C         23.05511819     15.17533103     14.55966708   
   167       C         20.63854284      9.31623292     11.11719206   
   168       C         20.36065124      8.66425372      9.91623429   
   169       C         21.85418429     15.45319876     15.21167015   
   170       C         23.79567698     10.09102976     13.13205539   
   171       C         22.94844066     11.52687863     14.69556870   
   172       C         22.40087077      9.92260916     12.87715628   
   173       C         22.63378018     12.86977863     14.84636888   
   174       C         22.94407137      9.02955499     10.69583018   
   175       C         23.54435925     13.87746098     14.45702458   
   176       C         21.93641289      9.41889929     11.60645700   
   177       C         19.09305584      8.49411406      9.33834201   
   178       C         21.35076094     13.12405696     15.30731701   
   179       C         22.68981692      8.56858299      9.41283482   
   180       C         21.18064515     14.39167624     15.88520929   
   181       C          9.24269515     21.42217376      7.99071458   
   182       C          8.51359679     23.71072652      8.82035436   
   183       C          9.08657064     18.07209848      9.39332821   
   184       C         15.05554564     20.45154679     12.10312348   
   185       C          8.30766716     16.95919503      9.14740644   
   186       C         14.27664216     20.69746856     10.99022003   
   187       C         11.11716819     20.63851897      9.31623292   
   188       C         14.55966708     23.05511819     15.17533103   
   189       C          9.91621042     20.36065124      8.66422985   
   190       C         15.21167015     21.85416042     15.45322263   
   191       C         13.13205539     23.79562922     10.09107751   
   192       C         14.69554482     22.94846454     11.52687863   
   193       C         12.87715628     22.40084690      9.92263303   
   194       C         10.69587793     22.94409525      9.02950724   
   195       C         14.84641663     22.63380405     12.86975475   
   196       C         11.60645700     21.93638902      9.41887542   
   197       C         14.45702458     23.54440700     13.87746098   
   198       C          9.41283482     22.68979304      8.56855912   
   199       C          9.33836588     19.09303196      8.49409018   
   200       C         15.30734088     21.35078482     13.12405696   
   201       C         15.88520929     21.18062128     14.39167624   
   202       C         21.02449677     17.74175152     14.48254792   
   203       C         20.24559328     18.85465497     14.72851744   
   204       C         17.08614319     20.52861820     14.66956784   
   205       C         21.27629201     16.72081804     15.38178594   
   206       C          3.42435321      0.16517348     20.75830436   
   207       C          2.85137936      5.80380152     21.33127821   
   208       C          3.63028284      6.91670497     21.08533256   
   209       C          0.82078181      3.23738103     21.25418292   
   210       C          3.34725792      2.73159397     18.72770681   
   211       C          2.69525485      2.45372624     19.92866458   
   212       C          2.02173958      3.51524876     20.60220372   
   213       C          4.77486961      7.81584749     17.98719578   
   214       C          6.04929353      7.16310426     16.06007638   
   215       C          4.12212638      5.88868035     16.71279574   
   216       C          3.21135630      6.38004637     18.83433658   
   217       C          3.95365803      4.49394577     16.96771872   
   218       C          3.86094791      6.82647795     17.70990107   
   219       C          1.24207207      0.93180475     20.96745724   
   220       C          3.06053224      5.03717025     19.14899707   
   221       C          0.33149300      1.93951098     21.35682542   
   222       C          3.44990042      4.02946402     18.23841800   
   223       C          2.52511518      1.18610696     20.50653299   
   224       C          2.59958412      4.78286804     20.43204018   
   225       C         21.53720784      3.17843144     22.92817003   
   226       C         22.68181849      0.08019915     22.02900363   
   227       C         21.11830518      0.92741158     23.46482863   
   228       C         22.93669372      1.47505310     21.86058303   
   229       C          6.78975681      8.59069208     21.14430603   
   230       C          6.89641046      8.72656982     17.49585363   
   231       C          5.02976872      7.98429197     19.38195423   
   232       C          5.77199882      8.07700209     17.04942205   
   233       C          7.21107095      8.87741776     18.83872975   
   234       C          6.30046800      8.48804958     19.84643598   
   235       C          7.99071458      9.24269515     21.42217376   
   236       C          8.82035436      8.51359679     23.71072652   
   237       C         12.10312348     15.05554564     20.45152292   
   238       C          9.39335208      9.08657064     18.07209848   
   239       C         10.99022003     14.27664216     20.69749244   
   240       C          9.14740644      8.30766716     16.95919503   
   241       C          9.31623292     11.11716819     20.63851897   
   242       C         15.17533103     14.55969095     23.05511819   
   243       C         15.45322263     15.21167015     21.85416042   
   244       C          8.66422985      9.91623429     20.36065124   
   245       C         10.09107751     13.13205539     23.79562922   
   246       C         11.52690251     14.69556870     22.94846454   
   247       C          9.92263303     12.87715628     22.40084690   
   248       C          9.02950724     10.69587793     22.94409525   
   249       C         12.86977863     14.84641663     22.63380405   
   250       C          9.41887542     11.60645700     21.93638902   
   251       C         13.87746098     14.45702458     23.54440700   
   252       C          8.56855912      9.41283482     22.68979304   
   253       C         13.12405696     15.30734088     21.35078482   
   254       C          8.49411406      9.33834201     19.09303196   
   255       C         14.39167624     15.88520929     21.18064515   
   256       C         17.74175152     14.48254792     21.02449677   
   257       C         18.85465497     14.72849356     20.24561716   
   258       C         20.52864208     14.66954397     17.08614319   
   259       C         16.72081804     15.38178594     21.27626813   
   260       C          3.17845531     22.92814615     21.53718397   
   261       C          0.07996039     22.02890813     22.68191399   
   262       C          0.92741158     23.46480475     21.11830518   
   263       C          1.47505310     21.86058303     22.93669372   
   264       C         14.48252404     21.02449677     17.74175152   
   265       C         14.72846969     20.24561716     18.85465497   
   266       C         14.66956784     17.08614319     20.52861820   
   267       C         15.38178594     21.27626813     16.72081804   
   268       C         19.10105426     19.75382137     17.82667810   
   269       C         17.82663035     19.10105426     19.75379749   
   270       C         19.75382137     17.82667810     19.10103039   
   271       C         18.31802025     16.97948954     20.66451982   
   272       C         20.66451982     18.31799637     16.97948954   
   273       C         16.97948954     20.66449595     18.31802025   
   274       C         16.43189577     18.84613128     19.92226584   
   275       C         19.92226584     16.43189577     18.84613128   
   276       C         18.84613128     19.92226584     16.43189577   
   277       C         23.01839705     21.76787291     23.67892383   
   278       C         20.01497596     18.76442795     18.10394893   
   279       C         23.67854181     23.01844480     21.76782516   
   280       C         18.10392505     20.01495209     18.76442795   
   281       C         21.76784904     23.67880445     23.01842093   
   282       C         18.76442795     18.10394893     20.01495209   
   283       C         16.97512025     16.66482905     20.81532001   
   284       C         20.81534388     16.97509637     16.66480518   
   285       C         16.66480518     20.81532001     16.97512025   
   286       C         15.96743789     17.57540813     20.42597571   
   287       C         20.42597571     15.96741402     17.57540813   
   288       C         17.57540813     20.42597571     15.96743789   
   289       H         14.39766909      6.25613045      1.53359681   
   290       H          9.91878901      7.95863333      1.68103049   
   291       H         15.88774014      4.28796838      1.98709565   
   292       H         12.18024263      7.86801633      2.22747821   
   293       H         22.34230319      2.45974297      5.68184343   
   294       H         20.36666797      4.43535432      0.28713157   
   295       H         21.88875659      3.94981401      7.64998162   
   296       H         21.64842179      0.24226876      4.06993367   
   297       H         18.14919376      3.74149679      1.89904133   
   298       H          1.53362068     14.39769297      6.25610657   
   299       H          1.98716728     15.88776401      4.28794451   
   300       H          1.68105437      9.91878901      7.95863333   
   301       H          2.22747821     12.18021876      7.86801633   
   302       H         15.67944679     10.03888479      5.72673012   
   303       H         23.58864905      8.42862247      7.50254793   
   304       H         16.37332819     11.65081843      3.50923203   
   305       H         15.91726667     13.61898049      2.01916099   
   306       H          5.68184343     22.34227932      2.45974297   
   307       H          0.28713157     20.36666797      4.43535432   
   308       H          7.65000549     21.88873272      3.94981401   
   309       H          1.89904133     18.14919376      3.74149679   
   310       H          4.06993367     21.64842179      0.24226876   
   311       H          8.19645321     21.97685867      6.21124376   
   312       H         22.19486951     21.85673901      3.97931667   
   313       H          6.25610657      1.53362068     14.39769297   
   314       H          4.28794451      1.98716728     15.88776401   
   315       H          7.95863333      1.68103049      9.91878901   
   316       H          7.86801633      2.22747821     12.18021876   
   317       H         10.03890867      5.72670624     15.67944679   
   318       H         21.97683479      6.21124376      8.19645321   
   319       H          5.72670624     15.67944679     10.03890867   
   320       H         18.19408045     10.40435319      9.47823091   
   321       H         19.44052181     12.22512933     15.44720591   
   322       H         16.22594226      9.95085435      7.98815986   
   323       H         19.89658333     10.25694338     13.95713486   
   324       H         19.80599021      9.71047179     11.69568124   
   325       H          3.50925591     16.37332819     11.65079455   
   326       H          7.50259568     23.58876843      8.42871797   
   327       H          2.01916099     15.91726667     13.61898049   
   328       H         15.44718203     19.44054568     12.22508157   
   329       H          9.47820703     18.19405657     10.40432932   
   330       H         13.95711099     19.89658333     10.25691951   
   331       H          7.98813599     16.22589451      9.95078272   
   332       H         11.69568124     19.80596633      9.71047179   
   333       H         21.41618091     17.61976955     13.47154681   
   334       H         19.92608599     19.58793162     13.92506953   
   335       H         23.63363124     16.00785979     14.16542821   
   336       H         17.66468012     20.13440321     13.83701521   
   337       H          2.45974297      5.68184343     22.34227932   
   338       H          4.43535432      0.28713157     20.36666797   
   339       H          3.94981401      7.65000549     21.88873272   
   340       H          0.24226876      4.06993367     21.64842179   
   341       H          3.74149679      1.89904133     18.14919376   
   342       H          8.42871797      7.50259568     23.58876843   
   343       H         11.65081843      3.50923203     16.37330432   
   344       H         13.61898049      2.01916099     15.91726667   
   345       H         21.85673901      3.97931667     22.19486951   
   346       H          6.21124376      8.19645321     21.97685867   
   347       H         10.40435319      9.47820703     18.19405657   
   348       H         12.22510545     15.44720591     19.44052181   
   349       H          9.95080659      7.98813599     16.22591838   
   350       H         10.25691951     13.95711099     19.89658333   
   351       H          9.71047179     11.69568124     19.80596633   
   352       H         17.61976955     13.47154681     21.41618091   
   353       H         19.58793162     13.92506953     19.92610986   
   354       H         20.13440321     13.83699133     17.66465624   
   355       H         16.00788367     14.16542821     23.63363124   
   356       H          3.97931667     22.19486951     21.85673901   
   357       H         13.47154681     21.41618091     17.61976955   
   358       H         13.92502178     19.92610986     19.58790774   
   359       H         13.83701521     17.66468012     20.13440321   
   360       H         14.16542821     23.63363124     16.00788367   
   361      Tv         23.87590000      0.00000000      0.00000000   
   362      Tv          0.00000000     23.87590000      0.00000000   
   363      Tv          0.00000000      0.00000000     23.87590000   

                             CARTESIAN COORDINATES

   1    N       15.923124221     4.838642142     4.138338119
   2    N       19.737370874     3.985221973     7.099331734
   3    N       16.776568266     7.799420873     7.952728027
   4    N       13.768419749    13.068282858     1.983776903
   5    N        9.954173097    10.107432499     1.130332858
   6    N        7.099212354    19.738134902     3.985078717
   7    N        4.138553002    15.923148097     4.838642142
   8    N        7.952751903    16.776592142     7.799468625
   9    N       22.745567142    21.892146973     1.830398122
  10    N       10.106978857     1.130261230     9.954077593
  11    N       13.068282858     1.983753027    13.768371998
  12    N        1.983776903    13.768467501    13.068282858
  13    N        1.130356734     9.954196973    10.107408623
  14    N       22.045358623    10.807593266    13.921703027
  15    N       13.921726903    22.045382499    10.807641018
  16    N        4.838642142     4.138553002    15.923148097
  17    N        3.985198097     7.099307858    19.737394749
  18    N        7.799396998     7.952728027    16.776592142
  19    N       21.892075345     1.830660757    22.745591018
  20    N       10.807617142    13.921726903    22.045358623
  21    N        1.831138275    22.745638770    21.892003717
  22    N       19.890701903    19.037281734    16.076407499
  23    N       19.037281734    16.076383623    19.890701903
  24    N       16.076479127    19.890678027    19.037281734
  25    C       14.789353233     6.134148476     2.544597918
  26    C       15.568232843     5.021221150     2.790519688
  27    C       15.149330178     5.557879754     5.041539540
  28    C       15.891584157     7.444004226     6.908181278
  29    C       15.798897913     5.111472051     6.166070555
  30    C       14.998529993     6.900755873     4.726879054
  31    C       15.387874295     7.908462109     5.637458129
  32    C       14.537581868     7.155081960     3.443835940
  33    C       20.758304358     3.424353206     0.165173476
  34    C       21.331302082     2.851403233     5.803801524
  35    C       21.085332560     3.630282843     6.916704975
  36    C       21.254182925     0.820781814     3.237381033
  37    C       18.727706814     3.347281801     2.731593967
  38    C       19.928640708     2.695278723     2.453726243
  39    C       20.602179847     2.021739584     3.515248757
  40    C       16.712843489     4.122054755     5.888775852
  41    C       17.987195776     4.774845737     7.815847493
  42    C       16.060052507     6.049269652     7.163104263
  43    C       18.834360460     3.211380178     6.380070246
  44    C       16.967718722     3.953634157     4.493945774
  45    C       17.709901073     3.860947913     6.826501824
  46    C       20.967433366     1.242095946     0.931804749
  47    C       19.149020946     3.060556117     5.037170251
  48    C       21.356825419     0.331492996     1.939510985
  49    C       18.238417996     3.449924295     4.029487891
  50    C       20.506509116     2.525115184     1.186106960
  51    C       20.432064060     2.599607992     4.782868040
  52    C        2.544621794    14.789329358     6.134148476
  53    C        2.790543564    15.568232843     5.021245025
  54    C        5.041563416    15.149306302     5.557903630
  55    C        6.908181278    15.891608033     7.444028102
  56    C        6.165927299    15.798897913     5.111472051
  57    C        4.726902930    14.998458366     6.900779749
  58    C        5.637482004    15.387850419     7.908485985
  59    C        3.443859816    14.537534116     7.155081960
  60    C       15.362303206    11.772776524     3.117595642
  61    C       15.116381436    12.885679975     2.338692157
  62    C        9.599257843     8.759518564     0.947729975
  63    C       12.758731814     8.700545091     2.621740951
  64    C       15.285231801     9.206332157     5.148217062
  65    C       14.633228723     9.484223757     3.947259292
  66    C       13.959689584     8.422677367     3.273720153
  67    C       12.018244652    13.784822493     1.194105387
  68    C       10.743844613    11.857679224     1.846872493
  69    C       12.865385460    12.349021370     2.757594822
  70    C        9.180355178    11.010538416     0.411071370
  71    C       10.998743722    10.462896898     2.015316967
  72    C       13.413003102    13.953266967     0.939206278
  73    C       11.080470927    14.045977087     0.197023927
[...]
  293          H           0.169661        0.8303     0.83034
  294          H           0.169357        0.8306     0.83064
  295          H           0.188201        0.8118     0.81180
  296          H           0.161189        0.8388     0.83881
  297          H           0.161250        0.8388     0.83875
  298          H           0.169285        0.8307     0.83072
  299          H           0.187611        0.8124     0.81239
  300          H           0.187182        0.8128     0.81282
  301          H           0.161595        0.8384     0.83840
  302          H           0.160653        0.8393     0.83935
  303          H           0.168254        0.8317     0.83175
  304          H           0.169288        0.8307     0.83071
  305          H           0.187202        0.8128     0.81280
  306          H           0.169476        0.8305     0.83052
  307          H           0.169315        0.8307     0.83068
  308          H           0.187801        0.8122     0.81220
  309          H           0.161286        0.8387     0.83871
  310          H           0.161109        0.8389     0.83889
  311          H           0.161576        0.8384     0.83842
  312          H           0.187200        0.8128     0.81280
  313          H           0.168969        0.8310     0.83103
  314          H           0.187588        0.8124     0.81241
  315          H           0.187516        0.8125     0.81248
  316          H           0.161823        0.8382     0.83818
  317          H           0.160402        0.8396     0.83960
  318          H           0.162327        0.8377     0.83767
  319          H           0.160760        0.8392     0.83924
  320          H           0.170318        0.8297     0.82968
  321          H           0.169101        0.8309     0.83090
  322          H           0.187650        0.8123     0.81235
  323          H           0.186531        0.8135     0.81347
  324          H           0.159855        0.8401     0.84015
  325          H           0.169277        0.8307     0.83072
  326          H           0.169021        0.8310     0.83098
  327          H           0.187154        0.8128     0.81285
  328          H           0.169244        0.8308     0.83076
  329          H           0.169705        0.8303     0.83029
  330          H           0.187028        0.8130     0.81297
  331          H           0.187569        0.8124     0.81243
  332          H           0.160683        0.8393     0.83932
  333          H           0.169024        0.8310     0.83098
  334          H           0.187507        0.8125     0.81249
  335          H           0.161152        0.8388     0.83885
  336          H           0.161186        0.8388     0.83881
  337          H           0.169472        0.8305     0.83053
  338          H           0.169291        0.8307     0.83071
  339          H           0.187792        0.8122     0.81221
  340          H           0.160998        0.8390     0.83900
  341          H           0.161388        0.8386     0.83861
  342          H           0.168759        0.8312     0.83124
  343          H           0.169646        0.8304     0.83035
  344          H           0.187272        0.8127     0.81273
  345          H           0.187239        0.8128     0.81276
  346          H           0.161647        0.8384     0.83835
  347          H           0.169684        0.8303     0.83032
  348          H           0.169110        0.8309     0.83089
  349          H           0.187304        0.8127     0.81270
  350          H           0.186935        0.8131     0.81307
  351          H           0.160541        0.8395     0.83946
  352          H           0.169157        0.8308     0.83084
  353          H           0.187490        0.8125     0.81251
  354          H           0.160877        0.8391     0.83912
  355          H           0.160957        0.8390     0.83904
  356          H           0.187245        0.8128     0.81276
  357          H           0.169168        0.8308     0.83083
  358          H           0.187547        0.8125     0.81245
  359          H           0.161090        0.8389     0.83891
  360          H           0.160929        0.8391     0.83907


          ATOMIC ORBITAL ELECTRON POPULATIONS

     Atom    s        px        py        pz   
    1  N   1.52273   1.21363   1.28567   1.09721
    2  N   1.52273   1.09722   1.21339   1.28582
    3  N   1.52327   1.28780   1.09700   1.21508
    4  N   1.52288   1.09700   1.28617   1.21431
    5  N   1.52252   1.21314   1.09716   1.28460
    6  N   1.52277   1.28610   1.09715   1.21393
    7  N   1.52273   1.09715   1.21373   1.28568
    8  N   1.52304   1.21468   1.28694   1.09702
    9  N   1.52279   1.28583   1.21392   1.09713
   10  N   1.52252   1.09723   1.28471   1.21301
   11  N   1.52299   1.28651   1.21438   1.09703
   12  N   1.52288   1.21448   1.09699   1.28637
   13  N   1.52233   1.28396   1.21288   1.09719
   14  N   1.52297   1.09696   1.28665   1.21504
   15  N   1.52281   1.21405   1.09710   1.28585
   16  N   1.52262   1.28537   1.09715   1.21362
   17  N   1.52283   1.21412   1.28633   1.09708
   18  N   1.52310   1.09696   1.21510   1.28733
   19  N   1.52284   1.21418   1.09710   1.28606
   20  N   1.52282   1.28587   1.21421   1.09705
   21  N   1.52275   1.09718   1.28575   1.21391
   22  N   1.52267   1.21362   1.28533   1.09706
   23  N   1.52280   1.28586   1.09700   1.21406
   24  N   1.52279   1.09699   1.21400   1.28584
   25  C   1.06805   1.05309   0.99476   1.10331
   26  C   1.10802   0.99123   1.02525   0.91092
   27  C   1.06438   1.03146   0.90467   0.88454
   28  C   1.03991   1.09442   0.96806   0.92592
   29  C   1.02956   1.04521   1.03194   1.02866
   30  C   1.04794   1.02385   0.95626   0.99951
   31  C   1.04512   1.00018   0.97554   0.92699
   32  C   1.04014   0.98851   0.98343   0.97404
   33  C   1.06784   1.05469   1.10352   0.99551
   34  C   1.06793   1.10381   1.05472   0.99552
   35  C   1.10846   0.91088   0.98913   1.02434
   36  C   1.07004   1.06074   1.02663   1.03259
   37  C   1.07015   1.02670   1.05992   1.03242
   38  C   1.05029   0.97115   1.00853   0.96483
   39  C   1.05026   1.00858   0.97146   0.96476
   40  C   1.05073   0.96662   0.98574   0.95024
   41  C   1.05130   0.94993   0.96474   0.98251
   42  C   1.05116   0.98359   0.95045   0.96561
   43  C   1.06465   0.88463   1.02785   0.90393
   44  C   1.03990   0.92630   1.09380   0.96812
   45  C   1.02943   1.02958   1.04609   1.03252
   46  C   1.04788   1.02497   0.99972   0.95670
   47  C   1.04777   1.00027   1.02699   0.95641
   48  C   1.04562   0.99630   0.92660   0.97519
   49  C   1.04544   0.92659   0.99697   0.97510
   50  C   1.04027   0.98636   0.97392   0.98284
   51  C   1.04043   0.97350   0.98543   0.98270
   52  C   1.06803   1.10325   1.05311   0.99479
   53  C   1.10806   0.91095   0.99126   1.02524
   54  C   1.06429   0.88462   1.03212   0.90479
   55  C   1.04010   0.92554   1.09282   0.96803
   56  C   1.02960   1.02847   1.04438   1.03142
   57  C   1.04794   0.99938   1.02356   0.95627
   58  C   1.04516   0.92719   1.00034   0.97555
   59  C   1.04011   0.97414   0.98869   0.98345
   60  C   1.06776   1.10365   0.99596   1.05556
   61  C   1.10818   0.91090   1.02385   0.98881
   62  C   1.10724   0.99437   0.91114   1.02676
   63  C   1.06986   1.02712   1.03288   1.06297
   64  C   1.07030   1.05773   1.03199   1.02631
   65  C   1.05006   1.01070   0.96533   0.97229
   66  C   1.05050   0.97025   0.96431   1.00620
   67  C   1.05087   0.95058   0.98638   0.96706
   68  C   1.05067   0.96742   0.95033   0.98723
   69  C   1.06415   0.88465   0.90476   1.03333
   70  C   1.06429   1.03389   0.88496   0.90525
   71  C   1.03982   0.92650   0.96835   1.09397
   72  C   1.04005   0.96815   1.09318   0.92575
   73  C   1.02979   1.03063   1.04303   1.02790
   74  C   1.02978   1.02839   1.03088   1.04328
   75  C   1.02968   1.04345   1.02815   1.03073
   76  C   1.04778   0.99999   0.95689   1.02648
   77  C   1.04589   0.92619   0.97496   0.99376
   78  C   1.04038   0.97370   0.98240   0.98469
   79  C   1.06784   0.99567   1.10374   1.05515
   80  C   1.06793   0.99517   1.05391   1.10341
   81  C   1.10822   1.02418   0.91090   0.98916
   82  C   1.07004   1.03257   1.02685   1.06102
   83  C   1.07020   1.03243   1.05927   1.02641
   84  C   1.05019   0.96496   1.00941   0.97178
   85  C   1.05037   0.96465   0.97082   1.00761
   86  C   1.05089   0.96671   0.98569   0.95053
   87  C   1.05065   0.95034   0.96704   0.98638
   88  C   1.05107   0.98458   0.95021   0.96600
   89  C   1.06453   0.90435   0.88445   1.03050
   90  C   1.03989   0.96820   0.92623   1.09364
   91  C   1.02966   1.03159   1.02890   1.04454
   92  C   1.04780   0.95663   1.00010   1.02652
   93  C   1.04790   0.95652   1.02451   0.99960
   94  C   1.04560   0.97511   0.92645   0.99598
   95  C   1.04546   0.97527   0.99771   0.92691
   96  C   1.04039   0.98259   0.97357   0.98528
   97  C   1.04020   0.98308   0.98730   0.97402
   98  C   1.06945   1.06703   1.03300   1.02829
   99  C   1.06419   1.03186   0.90443   0.88433
  100  C   1.03991   1.09566   0.96830   0.92696
  101  C   1.02965   1.04416   1.03155   1.02865
  102  C   1.04754   1.02994   0.95704   1.00084
  103  C   1.04620   0.99056   0.97490   0.92518
  104  C   1.10793   1.02477   0.99048   0.91089
  105  C   1.05079   0.98622   0.96696   0.95038
  106  C   1.06425   0.90473   1.03240   0.88466
  107  C   1.03986   1.09379   0.92618   0.96827
  108  C   1.06812   0.99409   1.10271   1.05159
  109  C   1.10774   1.02611   0.91103   0.99304
  110  C   1.06423   0.90514   0.88481   1.03343
  111  C   1.04020   0.96788   0.92484   1.09138
  112  C   1.02969   1.03090   1.02806   1.04359
  113  C   1.04818   0.95604   0.99855   1.02000
  114  C   1.04475   0.97579   0.92822   1.00447
  115  C   1.03976   0.98441   0.97498   0.99253
  116  C   1.06769   0.99662   1.05701   1.10421
  117  C   1.10734   0.91107   1.02629   0.99331
  118  C   1.10851   1.02301   0.98705   0.91079
  119  C   1.07076   1.03178   1.02501   1.05305
  120  C   1.06947   1.03313   1.06718   1.02831
  121  C   1.05094   0.96371   1.00184   0.96803
  122  C   1.04963   0.96597   0.97454   1.01501
  123  C   1.05101   0.98512   0.96637   0.95051
  124  C   1.05090   0.95020   0.98555   0.96643
  125  C   1.06449   0.88486   0.90489   1.03209
  126  C   1.06424   0.90437   1.03158   0.88445
  127  C   1.03992   1.09416   0.92606   0.96817
  128  C   1.03978   0.96839   1.09572   0.92722
  129  C   1.02964   1.03161   1.04435   1.02890
  130  C   1.02961   1.02862   1.03137   1.04444
  131  C   1.02972   1.04385   1.02821   1.03114
  132  C   1.04754   0.95707   1.03015   1.00087
  133  C   1.04627   0.97475   0.98977   0.92514
  134  C   1.04075   0.98144   0.98083   0.97281
  135  C   1.06860   1.03366   1.03069   1.07611
  136  C   1.06429   0.90368   0.88400   1.02906
  137  C   1.03953   0.96876   0.92830   1.09847
  138  C   1.02961   1.03242   1.02940   1.04549
  139  C   1.04704   0.95755   1.00258   1.03745
  140  C   1.04704   0.97436   0.92295   0.98177
  141  C   1.06774   1.05577   1.10367   0.99602
  142  C   1.10819   0.98866   0.91086   1.02376
  143  C   1.10664   1.02842   0.99777   0.91131
  144  C   1.06997   1.06228   1.02699   1.03289
  145  C   1.07039   1.02615   1.05719   1.03207
  146  C   1.05007   0.97235   1.01071   0.96537
  147  C   1.05052   1.00614   0.97024   0.96437
  148  C   1.05037   0.98936   0.96858   0.95047
  149  C   1.05089   0.96730   0.95062   0.98675
  150  C   1.06419   1.03335   0.88465   0.90480
  151  C   1.06419   0.90594   1.03644   0.88527
  152  C   1.04010   0.92583   0.96820   1.09333
  153  C   1.04006   1.09212   0.92599   0.96825
  154  C   1.02982   1.02983   1.04209   1.02736
  155  C   1.02997   1.02739   1.02986   1.04164
  156  C   1.02984   1.04256   1.02826   1.03043
  157  C   1.04775   1.02654   0.99996   0.95686
  158  C   1.04584   0.99427   0.92638   0.97504
  159  C   1.04039   0.98462   0.97367   0.98236
  160  C   1.05179   0.96238   0.96367   0.99310
  161  C   1.06745   0.99828   1.10536   1.06077
  162  C   1.06777   1.10343   0.99570   1.05511
  163  C   1.06842   0.99232   1.04762   1.10147
  164  C   1.10951   1.02084   0.91058   0.98267
  165  C   1.10796   0.91085   1.02410   0.98969
  166  C   1.06989   1.02719   1.03264   1.06241
  167  C   1.07166   1.03119   1.04383   1.02257
  168  C   1.04877   0.96730   1.02374   0.97896
  169  C   1.05049   0.97029   0.96450   1.00606
  170  C   1.05032   0.95098   0.99011   0.96931
  171  C   1.06388   0.88447   0.90546   1.03680
  172  C   1.04046   0.96752   1.08807   0.92348
  173  C   1.04779   0.99957   0.95684   1.02512
  174  C   1.04869   0.95556   1.01226   0.99674
  175  C   1.04577   0.92626   0.97535   0.99533
  176  C   1.04393   0.97627   1.01299   0.93048
  177  C   1.04150   0.97935   0.97100   0.97274
  178  C   1.04028   0.97379   0.98255   0.98568
  179  C   1.03897   0.98657   1.00094   0.97685
  180  C   1.05007   1.01061   0.96528   0.97226
  181  C   1.05087   1.00221   0.96379   0.96827
  182  C   1.06814   1.10277   0.99403   1.05141
  183  C   1.06767   1.05726   0.99668   1.10424
  184  C   1.06794   1.05375   1.10333   0.99510
  185  C   1.10880   0.98671   1.02284   0.91077
  186  C   1.10784   0.99082   0.91090   1.02488
  187  C   1.07077   1.02503   1.03192   1.05336
  188  C   1.07014   1.05978   1.02668   1.03231
  189  C   1.04966   0.97433   0.96585   1.01478
  190  C   1.05025   1.00870   0.97140   0.96496
  191  C   1.05056   0.96762   0.95058   0.98736
  192  C   1.06415   1.03378   0.88458   0.90503
  193  C   1.04005   0.92531   0.96791   1.09190
  194  C   1.04820   0.99872   0.95610   1.02052
  195  C   1.04788   1.02438   0.99953   0.95651
  196  C   1.04484   0.92818   0.97557   1.00343
  197  C   1.04544   0.99782   0.92666   0.97540
  198  C   1.03979   0.97497   0.98438   0.99217
  199  C   1.04076   0.98088   0.98142   0.97272
  200  C   1.04018   0.98739   0.97397   0.98308
  201  C   1.05031   0.97112   1.00811   0.96473
  202  C   1.06805   1.05286   0.99473   1.10306
  203  C   1.10792   0.99180   1.02548   0.91110
  204  C   1.07010   1.02667   1.06046   1.03256
  205  C   1.04001   0.98925   0.98359   0.97440
  206  C   1.06792   1.10336   0.99507   1.05382
  207  C   1.06781   1.05553   0.99589   1.10379
  208  C   1.10849   0.98858   1.02389   0.91087
  209  C   1.07025   1.02630   1.03233   1.05863
  210  C   1.07003   1.06135   1.03265   1.02692
  211  C   1.05043   1.00706   0.96457   0.97058
  212  C   1.05014   0.97204   0.96511   1.00992
  213  C   1.05104   0.96621   0.98492   0.95027
  214  C   1.05075   0.95065   0.96740   0.98678
  215  C   1.05057   0.98740   0.95036   0.96755
  216  C   1.06438   1.03069   0.90436   0.88458
  217  C   1.04001   1.09279   0.96820   0.92603
  218  C   1.02966   1.04413   1.03136   1.02882
  219  C   1.04794   0.99948   0.95652   1.02395
  220  C   1.04773   1.02697   0.95666   1.00016
  221  C   1.04537   0.92700   0.97540   0.99860
  222  C   1.04566   0.99556   0.97510   0.92641
  223  C   1.04016   0.97410   0.98321   0.98779
  224  C   1.04044   0.98473   0.98244   0.97351
  225  C   1.10800   0.98968   0.91086   1.02431
  226  C   1.05074   0.96710   0.95050   0.98644
  227  C   1.06419   1.03311   0.88463   0.90478
  228  C   1.04006   0.92575   0.96808   1.09295
  229  C   1.06934   1.02863   1.06821   1.03308
  230  C   1.06408   0.88427   1.03266   0.90455
  231  C   1.03986   0.92684   1.09534   0.96845
  232  C   1.02978   1.02837   1.04348   1.03110
  233  C   1.04745   1.00095   1.03074   0.95714
  234  C   1.04631   0.92486   0.98958   0.97491
  235  C   1.05102   0.96753   1.00069   0.96359
  236  C   1.06820   1.05055   1.10245   0.99368
  237  C   1.06793   0.99511   1.05376   1.10322
  238  C   1.06761   1.10435   1.05786   0.99694
  239  C   1.10779   1.02489   0.99094   0.91094
  240  C   1.10887   0.91074   0.98621   1.02251
  241  C   1.07095   1.05160   1.02460   1.03181
  242  C   1.07019   1.03235   1.05944   1.02656
  243  C   1.05023   0.96498   1.00881   0.97152
  244  C   1.04953   1.01616   0.97507   0.96611
  245  C   1.05051   0.98824   0.96811   0.95067
  246  C   1.06408   0.90521   1.03493   0.88461
  247  C   1.04015   1.09099   0.92488   0.96784
  248  C   1.04829   1.01871   0.99823   0.95601
  249  C   1.04790   0.95657   1.02382   0.99934
  250  C   1.04470   1.00513   0.92863   0.97572
  251  C   1.04544   0.97544   0.99807   0.92682
  252  C   1.03960   0.99399   0.97539   0.98482
  253  C   1.04013   0.98316   0.98778   0.97414
  254  C   1.04084   0.97252   0.97984   0.98110
  255  C   1.05033   0.96479   0.97102   1.00790
  256  C   1.06790   0.99540   1.10337   1.05434
  257  C   1.10818   1.02459   0.91101   0.99016
  258  C   1.07043   1.05708   1.03217   1.02606
  259  C   1.04022   0.98293   0.97395   0.98676
  260  C   1.10770   0.91090   1.02489   0.99077
  261  C   1.05080   0.95039   0.98640   0.96701
  262  C   1.06435   0.88454   0.90482   1.03284
  263  C   1.04006   0.96803   1.09341   0.92599
  264  C   1.06790   1.10339   1.05441   0.99544
  265  C   1.10824   0.91102   0.99003   1.02455
  266  C   1.07011   1.03247   1.02676   1.06038
  267  C   1.04023   0.97398   0.98668   0.98292
  268  C   1.05073   0.96721   0.98676   0.95040
  269  C   1.05081   0.95048   0.96706   0.98642
  270  C   1.05070   0.98698   0.95055   0.96737
  271  C   1.06417   0.90494   0.88461   1.03367
  272  C   1.06428   1.03314   0.90496   0.88469
  273  C   1.06422   0.88467   1.03306   0.90482
  274  C   1.03997   0.96821   0.92600   1.09349
  275  C   1.04007   1.09258   0.96803   0.92558
  276  C   1.03989   0.92618   1.09369   0.96822
  277  C   1.02962   1.03121   1.04392   1.02851
  278  C   1.02967   1.04384   1.03105   1.02837
  279  C   1.02969   1.02834   1.03112   1.04384
  280  C   1.02972   1.02842   1.04365   1.03105
  281  C   1.02975   1.04360   1.02832   1.03105
  282  C   1.02974   1.03098   1.02824   1.04357
  283  C   1.04786   0.95662   0.99960   1.02489
  284  C   1.04799   1.02300   0.95633   0.99918
  285  C   1.04787   0.99965   1.02502   0.95663
  286  C   1.04554   0.97529   0.92664   0.99691
  287  C   1.04520   1.00005   0.97545   0.92734
  288  C   1.04558   0.92668   0.99650   0.97517
  289  H   0.83063
  290  H   0.81278
  291  H   0.81230
  292  H   0.83850
  293  H   0.83034
  294  H   0.83064
  295  H   0.81180
  296  H   0.83881
  297  H   0.83875
  298  H   0.83072
  299  H   0.81239
  300  H   0.81282
  301  H   0.83840
  302  H   0.83935
  303  H   0.83175
  304  H   0.83071
  305  H   0.81280
  306  H   0.83052
  307  H   0.83068
  308  H   0.81220
  309  H   0.83871
  310  H   0.83889
  311  H   0.83842
  312  H   0.81280
  313  H   0.83103
  314  H   0.81241
  315  H   0.81248
  316  H   0.83818
  317  H   0.83960
  318  H   0.83767
  319  H   0.83924
  320  H   0.82968
  321  H   0.83090
  322  H   0.81235
  323  H   0.81347
  324  H   0.84015
  325  H   0.83072
  326  H   0.83098
  327  H   0.81285
  328  H   0.83076
  329  H   0.83029
  330  H   0.81297
  331  H   0.81243
  332  H   0.83932
  333  H   0.83098
  334  H   0.81249
  335  H   0.83885
  336  H   0.83881
  337  H   0.83053
  338  H   0.83071
  339  H   0.81221
  340  H   0.83900
  341  H   0.83861
  342  H   0.83124
  343  H   0.83035
  344  H   0.81273
  345  H   0.81276
  346  H   0.83835
  347  H   0.83032
  348  H   0.83089
  349  H   0.81270
  350  H   0.81307
  351  H   0.83946
  352  H   0.83084
  353  H   0.81251
  354  H   0.83912
  355  H   0.83904
  356  H   0.81276
  357  H   0.83083
  358  H   0.81245
  359  H   0.83891
  360  H   0.83907

 **********************
 *                    *
 * JOB ENDED NORMALLY *
 *                    *
 **********************



 TOTAL JOB TIME:           114.76 SECONDS

 == MOPAC DONE ==
