 *******************************************************************************
 **                                                                           **
 **                              MOPAC v22.1.0                                **
 **                                                                           **
 *******************************************************************************
 **          Digital Object Identifier (DOI): 10.5281/zenodo.6511958          **
 **    Visit the DOI location for information on how to cite this program.    **
 *******************************************************************************

                              PM7 CALCULATION RESULTS

 *******************************************************************************
 *  CALCULATION DONE:                                Thu Feb  1 10:34:07 2024  *
 *  PM7        - The PM7 Hamiltonian to be used
 *  NOOPT      - DO NOT OPTIMIZE ANY COORDINATES
 *
 *
 *
 *                 CHARGE ON SYSTEM = 0
 *
 *
 *
 *  T=         - A TIME OF 172800.0 SECONDS REQUESTED
 *  DUMP=N     - RESTART FILE WRITTEN EVERY 7200.0 SECONDS REQUESTED
 *******************************************************************************
PM7 CHARGE=0 NOOPT


   ATOM   CHEMICAL          X               Y               Z
  NUMBER   SYMBOL      (ANGSTROMS)     (ANGSTROMS)     (ANGSTROMS)

     1       N         15.39996419      7.07417563      6.71768510   
     2       N         16.47321590      3.80453688      4.52127487   
     3       N          6.71770829     15.39998738      7.07419882   
     4       N         10.67546746     10.31900012      1.99318837   
     5       N         12.87192407     13.58863887      0.91998304   
     6       N          4.52127487     16.47321590      3.80451369   
     7       N          7.79091362     18.66962613      4.87776540   
     8       N         21.19773582     22.27089477      1.27654315   
     9       N          7.07426840      6.71754596     15.39980185   
    10       N         13.58905630      0.91958880     12.87197045   
    11       N         10.31897693      1.99318837     10.67549065   
    12       N         18.66964932      4.87771902      7.79091362   
    13       N          0.91998304     12.87190088     13.58863887   
    14       N          1.99318837     10.67546746     10.31900012   
    15       N         21.91445062      9.60226213     12.51543354   
    16       N         12.51541035     21.91442743      9.60223894   
    17       N          3.80430497      4.52120530     16.47347100   
    18       N         22.27126582      1.27651995     21.19743434   
    19       N          4.87771902      7.79089043     18.66967251   
    20       N          9.60223894     12.51541035     21.91445062   
    21       N          1.27647357     21.19775901     22.27087158   
    22       N         16.11672537     18.31315879     19.38636412   
    23       N         19.38636412     16.11672537     18.31315879   
    24       N         18.31313560     19.38638731     16.11670218   
    25       C         14.29969508      5.98946762      2.24787084   
    26       C         15.06409037      4.83226485      2.35923355   
    27       C         15.06402080      5.27799397      4.69356007   
    28       C         15.31021540      4.79110100      5.92624922   
    29       C         14.64711797      6.57132733      4.53651129   
    30       C         14.89588677      7.56971880      5.51718492   
    31       C         14.09818935      6.90063812      3.28904953   
    32       C         15.29291499      5.69109349      7.00358253   
    33       C         20.09737395      3.54973845      0.19185832   
    34       C         20.94303016      2.70422139      5.60595969   
    35       C         20.83166745      3.46863987      6.76318565   
    36       C         20.62865430      0.70085222      3.12703790   
    37       C         18.09400478      3.23550174      2.67075692   
    38       C         19.28849852      2.57994135      2.37249875   
    39       C         19.97316349      1.89529958      3.42527289   
    40       C         16.18727209      3.69748768      5.90433382   
    41       C         18.49734093      3.46854711      6.31743334   
    42       C         17.26467497      3.71478809      6.80439588   
    43       C         20.44477365      1.26107481      0.77404270   
    44       C         18.65443609      3.05166747      5.02414637   
    45       C         20.69358883      0.28060990      1.77178484   
    46       C         17.67369289      3.30043627      4.02575489   
    47       C         15.56826056      4.48632618      3.64600388   
    48       C         19.54487393      3.97283325      7.10914751   
    49       C         19.89596098      2.50883805      1.10265777   
    50       C         19.90180508      2.50278523      4.69488195   
    51       C          2.24787084     14.29969508      5.98946762   
    52       C          2.35923355     15.06409037      4.83226485   
    53       C          4.69356007     15.06399761      5.27801716   
    54       C          5.92624922     15.31021540      4.79110100   
    55       C          4.53651129     14.64711797      6.57132733   
    56       C          5.51718492     14.89588677      7.56971880   
    57       C          3.28904953     14.09818935      6.90061493   
    58       C          7.00360572     15.29291499      5.69109349   
    59       C         15.14530491     11.40368494      3.09348067   
    60       C         15.03394220     12.56091090      2.32908538   
    61       C          9.26636512      8.15695880      0.96546040   
    62       C         12.29623315      8.46850536      2.56222351   
    63       C         14.83095224      8.92464720      5.09694260   
    64       C         14.17539185      9.22306771      3.90233291   
    65       C         13.49084284      8.17008485      3.21778390   
    66       C         11.48879555     13.69571126      1.20585728   
    67       C         10.38957003     11.70208226      2.10026076   
    68       C         12.69961568     12.11518178      2.32917814   
    69       C          9.26627236     10.49128532      0.51970809   
    70       C         10.58882625     13.67841085      0.12852397   
    71       C         11.46692653     12.60207475      2.08296035   
    72       C          9.51249015     11.72395128      1.00662425   
    73       C         12.85666446     10.82184842      2.74605778   
    74       C         11.87599083      9.82345695      2.49728898   
    75       C         13.74714868     12.90684957      1.82491519   
    76       C          9.77055850      9.44375232      1.31142226   
    77       C         14.10412622     10.49256082      3.29498640   
    78       C          9.49518974     12.80133097      0.10663176   
    79       C         16.08177668      7.94944662      7.62264044   
    80       C          5.60595969     20.94300697      2.70424458   
    81       C          0.19174237     20.09742033      3.54983122   
    82       C          6.76318565     20.83166745      3.46863987   
    83       C          2.67080330     18.09395840      3.23550174   
    84       C          3.12692195     20.62870068      0.70078265   
    85       C          3.42534246     19.97309391      1.89539234   
    86       C          2.37238279     19.28856809      2.57994135   
    87       C          5.90435701     16.18729528      3.69746449   
    88       C          6.31745653     18.49734093      3.46857030   
    89       C          6.80434950     17.26465178      3.71476490   
    90       C          5.02412317     18.65438971      3.05166747   
    91       C          0.77353250     20.44486641      1.26121396   
    92       C          4.02573170     17.67371608      3.30043627   
    93       C          1.77203994     20.69358883      0.28056352   
    94       C          7.10912432     19.54487393      3.97281006   
    95       C          3.64602707     15.56826056      4.48632618   
    96       C          4.69483557     19.90185147      2.50273885   
    97       C          1.10288968     19.89591460      2.50869891   
    98       C          7.89798601     17.28654399      4.59184478   
    99       C          8.35994876     20.52012089      6.49853109   
   100       C          9.01550915     20.81851821      7.69309440   
   101       C          8.12690339     16.87344447      6.90189043   
   102       C          7.88068560     16.38655150      5.66922447   
   103       C          8.54378303     18.16675463      7.05893921   
   104       C          8.29501423     19.16516930      6.07824239   
   105       C         22.22546379     20.86179243      3.43851489   
   106       C         22.67121610     20.86172286      1.10425794   
   107       C         21.87947874     21.36600900      2.15162860   
   108       C          5.98956038      2.24794042     14.29967189   
   109       C          4.83221847      2.35911760     15.06409037   
   110       C          5.27785482      4.69353688     15.06397442   
   111       C          4.79114738      5.92627241     15.31021540   
   112       C          6.57165200      4.53658086     14.64704840   
   113       C          7.56960285      5.51713854     14.89586358   
   114       C          6.90042940      3.28897996     14.09825892   
   115       C          5.69100072      7.00351296     15.29284542   
   116       C         11.40366175      3.09350386     15.14525853   
   117       C          8.15693561      0.96546040      9.26636512   
   118       C         12.56091090      2.32910857     15.03398858   
   119       C          8.92471677      5.09687303     14.83092905   
   120       C          8.46845898      2.56220032     12.29623315   
   121       C          8.17027038      3.21780709     13.49079646   
   122       C          9.22290537      3.90242567     14.17541505   
   123       C         13.69573445      1.20585728     11.48874916   
   124       C         11.70210545      2.10026076     10.38959322   
   125       C         10.49126213      0.51973128      9.26629555   
   126       C         12.11455563      2.32966515     12.69954611   
   127       C         12.60209794      2.08296035     11.46697291   
   128       C         11.72395128      1.00662425      9.51249015   
   129       C         13.67838766      0.12852397     10.58880306   
   130       C         10.82198757      2.74601140     12.85666446   
   131       C          9.82348014      2.49728898     11.87594445   
   132       C          9.44375232      1.31139907      9.77053531   
   133       C         12.90691914      1.82486881     13.74717187   
   134       C         10.49269997      3.29494002     14.10414941   
   135       C         12.80135416      0.10663176      9.49521293   
   136       C         17.28652080      4.59186797      7.89796282   
   137       C         20.52009770      6.49850790      8.35992557   
   138       C         20.81854140      7.69311759      9.01550915   
   139       C         16.87344447      6.90191362      8.12688020   
   140       C         16.38657469      5.66920128      7.88068560   
   141       C         18.16677783      7.05893921      8.54378303   
   142       C         19.16519250      6.07828877      8.29503742   
   143       C          3.09348067     15.14530491     11.40370813   
   144       C          2.32908538     15.03394220     12.56091090   
   145       C          0.96546040      9.26636512      8.15695880   
   146       C          2.56222351     12.29623315      8.46850536   
   147       C          5.09694260     14.83095224      8.92467039   
   148       C          3.90233291     14.17539185      9.22306771   
   149       C          3.21778390     13.49084284      8.17010804   
   150       C          2.10026076     10.38957003     11.70208226   
   151       C          1.20588047     11.48881874     13.69571126   
   152       C          2.32915495     12.69961568     12.11518178   
   153       C          0.51973128      9.26627236     10.49128532   
   154       C          1.00662425      9.51249015     11.72397447   
   155       C          0.12852397     10.58882625     13.67841085   
   156       C          2.08296035     11.46692653     12.60207475   
   157       C          2.74605778     12.85666446     10.82184842   
   158       C          2.49728898     11.87599083      9.82345695   
   159       C          1.82491519     13.74714868     12.90684957   
   160       C          1.31139907      9.77053531      9.44375232   
   161       C          3.29498640     14.10412622     10.49256082   
   162       C          0.10663176      9.49518974     12.80133097   
   163       C         17.58494131      9.34757966      8.89120592   
   164       C         19.64104659     11.78721606     14.68893117   
   165       C         22.99915863      8.50196983      8.04559609   
   166       C         16.42771535      9.23621695      8.12681063   
   167       C         19.75240930     10.62999010     13.92453588   
   168       C         22.49011835     14.72239564     14.15767401   
   169       C         20.06397905      9.03322699     10.89466785   
   170       C         19.76553535      8.37766660      9.70005816   
   171       C         21.29550866     15.02081615     14.81323440   
   172       C         22.08673582     11.07571922     13.92462864   
   173       C         21.92968704     12.36905258     14.34150828   
   174       C         22.41729892      8.84939272     10.33423654   
   175       C         22.91036067     13.36744405     14.09273948   
   176       C         21.41890745      9.09816152     11.31491017   
   177       C         21.03920282     10.28405143     13.42036569   
   178       C         18.49608862      8.30642416      9.09273485   
   179       C         20.68222528     12.69834018     14.89043690   
   180       C         22.08801132      8.30046410      9.08677478   
   181       C          7.62264044     16.08175349      7.94942343   
   182       C          8.04561928     22.99915863      8.50196983   
   183       C          8.89120592     17.58494131      9.34757966   
   184       C         14.68893117     19.64104659     11.78721606   
   185       C          8.12681063     16.42771535      9.23621695   
   186       C         13.92453588     19.75240930     10.62996691   
   187       C         10.89466785     20.06397905      9.03322699   
   188       C         14.15767401     22.49011835     14.72237245   
   189       C          9.70005816     19.76555854      8.37766660   
   190       C         14.81323440     21.29550866     15.02076977   
   191       C         13.92460545     22.08673582     11.07569603   
   192       C         10.33423654     22.41732212      8.84939272   
   193       C         14.34153147     21.92966385     12.36909896   
   194       C         11.31493336     21.41888425      9.09816152   
   195       C         14.09273948     22.91036067     13.36746725   
   196       C         13.42036569     21.03920282     10.28405143   
   197       C          9.08675159     22.08798813      8.30046410   
   198       C          9.09271165     18.49606543      8.30640097   
   199       C         14.89041371     20.68224848     12.69831699   
   200       C         20.48665642     17.20143338     13.84334453   
   201       C         19.72226113     18.35863615     13.95466086   
   202       C         16.69239310     19.95537607     14.26625380   
   203       C         15.49778341     20.61095965     13.96785648   
   204       C         19.21809094     18.70459801     15.24147757   
   205       C         20.68818535     16.29026288     14.88450003   
   206       C          3.54987760      0.19174237     20.09739714   
   207       C          2.70422139      5.60595969     20.94303016   
   208       C          3.46863987      6.76318565     20.83166745   
   209       C          0.70085222      3.12699152     20.62865430   
   210       C          3.23550174      2.67075692     18.09400478   
   211       C          2.57996455      2.37238279     19.28852171   
   212       C          1.89534596      3.42534246     19.97314030   
   213       C          3.69748768      5.90428744     16.18720252   
   214       C          3.46854711      6.31741015     18.49736412   
   215       C          3.71483448      6.80448864     17.26474454   
   216       C          1.26128353      0.77355569     20.44482003   
   217       C          3.05166747      5.02414637     18.65443609   
   218       C          0.28035480      1.77190079     20.69368159   
   219       C          3.30048265      4.02577808     17.67357693   
   220       C          4.48639575      3.64614303     15.56821418   
   221       C          3.97283325      7.10914751     19.54487393   
   222       C          2.50862933      1.10291287     19.89591460   
   223       C          2.50276204      4.69483557     19.90182827   
   224       C          7.94928428      7.62257087     16.08173030   
   225       C         20.86181562      3.43867723     22.22537103   
   226       C         20.86172286      1.10423475     22.67091462   
   227       C         21.36591624      2.15148946     21.87961788   
   228       C          4.59182159      7.89791644     17.28647441   
   229       C          6.49848471      8.35992557     20.52014408   
   230       C          7.69314078      9.01553234     20.81849502   
   231       C          6.90191362      8.12711211     16.87369957   
   232       C          5.66922447      7.88073198     16.38664426   
   233       C          7.05889283      8.54375984     18.16675463   
   234       C          6.07828877      8.29503742     19.16514611   
   235       C          8.50196983      8.04559609     22.99915863   
   236       C         11.78721606     14.68893117     19.64104659   
   237       C          9.34751008      8.89120592     17.58494131   
   238       C         10.62999010     13.92453588     19.75240930   
   239       C          9.23633290      8.12685701     16.42773854   
   240       C          9.03322699     10.89464466     20.06395586   
   241       C         14.72239564     14.15767401     22.49011835   
   242       C         15.02081615     14.81323440     21.29550866   
   243       C          8.37766660      9.70010454     19.76567450   
   244       C         11.07569603     13.92460545     22.08673582   
   245       C          8.84939272     10.33423654     22.41734531   
   246       C         12.36907577     14.34150828     21.92968704   
   247       C          9.09816152     11.31491017     21.41890745   
   248       C         13.36744405     14.09273948     22.91036067   
   249       C         10.28405143     13.42036569     21.03920282   
   250       C          8.30044090      9.08677478     22.08798813   
   251       C         12.69831699     14.89043690     20.68222528   
   252       C          8.30644735      9.09266527     18.49594947   
   253       C         17.20143338     13.84332134     20.48665642   
   254       C         18.35863615     13.95466086     19.72226113   
   255       C         19.95539926     14.26625380     16.69239310   
   256       C         20.61095965     13.96781010     15.49778341   
   257       C         18.70459801     15.24147757     19.21806775   
   258       C         16.29026288     14.88450003     20.68818535   
   259       C          3.43849170     22.22544060     20.86181562   
   260       C          1.10411880     22.67123929     20.86172286   
   261       C          2.15169818     21.87945555     21.36603219   
   262       C         13.84332134     20.48665642     17.20143338   
   263       C         13.95468405     19.72226113     18.35863615   
   264       C         14.26625380     16.69239310     19.95539926   
   265       C         13.96783329     15.49778341     20.61095965   
   266       C         15.24145438     19.21809094     18.70459801   
   267       C         14.88452323     20.68816215     16.29028607   
   268       C         21.09059386     21.98513648     23.08410690   
   269       C         21.98495096     23.08438519     21.09061705   
   270       C         23.08424605     21.09075620     21.98492777   
   271       C         18.59903303     19.49343651     17.49983070   
   272       C         17.49980751     18.59905622     19.49343651   
   273       C         19.49343651     17.49983070     18.59903303   
   274       C         17.91288384     16.28901057     19.72235389   
   275       C         19.72237708     17.91286065     16.28901057   
   276       C         16.28901057     19.72235389     17.91290703   
   277       C         22.18429994     21.10791746     23.06237703   
   278       C         19.47613610     18.39980000     17.52169972   
   279       C         23.06251617     22.18404484     21.10805661   
   280       C         17.52169972     19.47613610     18.39980000   
   281       C         21.10787108     23.06228426     22.18446228   
   282       C         18.39980000     17.52167653     19.47613610   
   283       C         16.61962006     16.13196179     20.13923353   
   284       C         20.13923353     16.61959687     16.13196179   
   285       C         16.13193860     20.13923353     16.61959687   
   286       C         15.62115900     17.11263542     19.89046473   
   287       C         19.89046473     15.62115900     17.11263542   
   288       C         17.11263542     19.89046473     15.62115900   
   289       H         13.87024598      6.22722074      1.27392257   
   290       H          9.44314936      7.29643723      1.60824260   
   291       H         15.24087461      4.18948265      1.49871198   
   292       H         11.73856155      7.66134605      2.09483409   
   293       H         21.91697843      2.27479548      5.36822976   
   294       H         19.66797123      4.52382587      0.42949549   
   295       H         21.69218902      3.64542411      7.40596785   
   296       H         21.09606691      0.14311105      3.93410445   
   297       H         17.53628680      3.70291435      1.86362080   
   298       H          1.27392257     13.87024598      6.22722074   
   299       H          1.49871198     15.24087461      4.18948265   
   300       H          1.60824260      9.44314936      7.29643723   
   301       H          2.09483409     11.73856155      7.66134605   
   302       H         15.29834166      9.73182970      5.65461420   
   303       H         22.76140551      8.07252073      7.07164782   
   304       H         16.11925318     11.16595501      3.52292977   
   305       H         15.89446377     13.20369310      2.15230114   
   306       H          5.36822976     21.91697843      2.27479548   
   307       H          0.42949549     19.66797123      4.52380268   
   308       H          7.40596785     21.69218902      3.64542411   
   309       H          1.86362080     17.53628680      3.70289116   
   310       H          3.93410445     21.09606691      0.14311105   
   311       H          7.89255934     21.32728020      5.94083630   
   312       H         21.58265840     21.03859986      4.29901327   
   313       H          6.22722074      1.27389938     13.87024598   
   314       H          4.18950584      1.49873517     15.24087461   
   315       H          7.29643723      1.60824260      9.44314936   
   316       H          7.66134605      2.09483409     11.73856155   
   317       H          9.73182970      5.65463739     15.29834166   
   318       H         21.32728020      5.94083630      7.89255934   
   319       H          5.65461420     15.29834166      9.73182970   
   320       H         17.82267124     10.32152793      9.32065502   
   321       H         18.66709832     12.02494599     15.11838027   
   322       H         15.78493315     10.09673852      7.95002639   
   323       H         18.89188773      9.98720790     13.74775164   
   324       H         19.25679655      9.50061641     11.45233945   
   325       H          3.52292977     16.11925318     11.16595501   
   326       H          7.07164782     22.76140551      8.07252073   
   327       H          2.15230114     15.89446377     13.20369310   
   328       H         15.11838027     18.66709832     12.02494599   
   329       H          9.32065502     17.82267124     10.32152793   
   330       H         13.74775164     18.89188773      9.98720790   
   331       H          7.95002639     15.78493315     10.09673852   
   332       H         11.45233945     19.25679655      9.50061641   
   333       H         20.91610552     16.96368026     12.86937307   
   334       H         19.54547689     19.00141835     13.09416248   
   335       H         23.04778995     15.52955495     13.69028459   
   336       H         17.25006470     19.48800984     13.45907130   
   337       H          2.27479548      5.36822976     21.91697843   
   338       H          4.52380268      0.42949549     19.66797123   
   339       H          3.64542411      7.40596785     21.69218902   
   340       H          0.14311105      3.93410445     21.09606691   
   341       H          3.70289116      1.86362080     17.53628680   
   342       H          8.07252073      7.07164782     22.76140551   
   343       H         11.16595501      3.52292977     16.11925318   
   344       H         13.20369310      2.15230114     15.89446377   
   345       H         21.03859986      4.29896689     21.58270478   
   346       H          5.94083630      7.89255934     21.32728020   
   347       H         10.32155112      9.32065502     17.82267124   
   348       H         12.02494599     15.11838027     18.66709832   
   349       H         10.09673852      7.95002639     15.78495634   
   350       H          9.98720790     13.74775164     18.89188773   
   351       H          9.50061641     11.45233945     19.25679655   
   352       H         16.96368026     12.86937307     20.91610552   
   353       H         19.00141835     13.09416248     19.54547689   
   354       H         19.48800984     13.45907130     17.25006470   
   355       H         15.52955495     13.69028459     23.04778995   
   356       H          4.29901327     21.58265840     21.03859986   
   357       H         12.86937307     20.91610552     16.96368026   
   358       H         13.09416248     19.54547689     19.00141835   
   359       H         13.45907130     17.25006470     19.48800984   
   360       H         13.69028459     23.04778995     15.52955495   
   361      Tv         23.19090100      0.00000000      0.00000000   
   362      Tv          0.00000000     23.19090100      0.00000000   
   363      Tv          0.00000000      0.00000000     23.19090100   


                   THE SYSTEM IS A SOLID


                UNIT CELL TRANSLATION VECTORS

              X                Y              Z
    T1 =    23.1909010      0.0000000      0.0000000
    T2 =     0.0000000     23.1909010      0.0000000
    T3 =     0.0000000      0.0000000     23.1909010


          CARTESIAN COORDINATES 

    NO.       ATOM           X           Y           Z

     1         N         15.4000      7.0742      6.7177
     2         N         16.4732      3.8045      4.5213
     3         N          6.7177     15.4000      7.0742
     4         N         10.6755     10.3190      1.9932
     5         N         12.8719     13.5886      0.9200
     6         N          4.5213     16.4732      3.8045
     7         N          7.7909     18.6696      4.8778
     8         N         21.1977     22.2709      1.2765
     9         N          7.0743      6.7175     15.3998
    10         N         13.5891      0.9196     12.8720
    11         N         10.3190      1.9932     10.6755
    12         N         18.6696      4.8777      7.7909
    13         N          0.9200     12.8719     13.5886
    14         N          1.9932     10.6755     10.3190
    15         N         21.9145      9.6023     12.5154
    16         N         12.5154     21.9144      9.6022
    17         N          3.8043      4.5212     16.4735
    18         N         22.2713      1.2765     21.1974
    19         N          4.8777      7.7909     18.6697
    20         N          9.6022     12.5154     21.9145
    21         N          1.2765     21.1978     22.2709
    22         N         16.1167     18.3132     19.3864
    23         N         19.3864     16.1167     18.3132
    24         N         18.3131     19.3864     16.1167
    25         C         14.2997      5.9895      2.2479
    26         C         15.0641      4.8323      2.3592
    27         C         15.0640      5.2780      4.6936
    28         C         15.3102      4.7911      5.9262
    29         C         14.6471      6.5713      4.5365
    30         C         14.8959      7.5697      5.5172
    31         C         14.0982      6.9006      3.2890
    32         C         15.2929      5.6911      7.0036
    33         C         20.0974      3.5497      0.1919
    34         C         20.9430      2.7042      5.6060
    35         C         20.8317      3.4686      6.7632
    36         C         20.6287      0.7009      3.1270
    37         C         18.0940      3.2355      2.6708
    38         C         19.2885      2.5799      2.3725
    39         C         19.9732      1.8953      3.4253
    40         C         16.1873      3.6975      5.9043
    41         C         18.4973      3.4685      6.3174
    42         C         17.2647      3.7148      6.8044
    43         C         20.4448      1.2611      0.7740
    44         C         18.6544      3.0517      5.0241
    45         C         20.6936      0.2806      1.7718
    46         C         17.6737      3.3004      4.0258
    47         C         15.5683      4.4863      3.6460
    48         C         19.5449      3.9728      7.1091
    49         C         19.8960      2.5088      1.1027
    50         C         19.9018      2.5028      4.6949
    51         C          2.2479     14.2997      5.9895
    52         C          2.3592     15.0641      4.8323
    53         C          4.6936     15.0640      5.2780
    54         C          5.9262     15.3102      4.7911
    55         C          4.5365     14.6471      6.5713
    56         C          5.5172     14.8959      7.5697
    57         C          3.2890     14.0982      6.9006
    58         C          7.0036     15.2929      5.6911
    59         C         15.1453     11.4037      3.0935
    60         C         15.0339     12.5609      2.3291
    61         C          9.2664      8.1570      0.9655
    62         C         12.2962      8.4685      2.5622
    63         C         14.8310      8.9246      5.0969
    64         C         14.1754      9.2231      3.9023
    65         C         13.4908      8.1701      3.2178
    66         C         11.4888     13.6957      1.2059
    67         C         10.3896     11.7021      2.1003
    68         C         12.6996     12.1152      2.3292
    69         C          9.2663     10.4913      0.5197
    70         C         10.5888     13.6784      0.1285
    71         C         11.4669     12.6021      2.0830
    72         C          9.5125     11.7240      1.0066
    73         C         12.8567     10.8218      2.7461
    74         C         11.8760      9.8235      2.4973
    75         C         13.7471     12.9068      1.8249
    76         C          9.7706      9.4438      1.3114
    77         C         14.1041     10.4926      3.2950
    78         C          9.4952     12.8013      0.1066
    79         C         16.0818      7.9494      7.6226
    80         C          5.6060     20.9430      2.7042
    81         C          0.1917     20.0974      3.5498
    82         C          6.7632     20.8317      3.4686
    83         C          2.6708     18.0940      3.2355
    84         C          3.1269     20.6287      0.7008
    85         C          3.4253     19.9731      1.8954
    86         C          2.3724     19.2886      2.5799
    87         C          5.9044     16.1873      3.6975
    88         C          6.3175     18.4973      3.4686
    89         C          6.8043     17.2647      3.7148
    90         C          5.0241     18.6544      3.0517
    91         C          0.7735     20.4449      1.2612
    92         C          4.0257     17.6737      3.3004
    93         C          1.7720     20.6936      0.2806
    94         C          7.1091     19.5449      3.9728
    95         C          3.6460     15.5683      4.4863
    96         C          4.6948     19.9019      2.5027
    97         C          1.1029     19.8959      2.5087
    98         C          7.8980     17.2865      4.5918
    99         C          8.3599     20.5201      6.4985
   100         C          9.0155     20.8185      7.6931
   101         C          8.1269     16.8734      6.9019
   102         C          7.8807     16.3866      5.6692
   103         C          8.5438     18.1668      7.0589
   104         C          8.2950     19.1652      6.0782
   105         C         22.2255     20.8618      3.4385
   106         C         22.6712     20.8617      1.1043
   107         C         21.8795     21.3660      2.1516
   108         C          5.9896      2.2479     14.2997
   109         C          4.8322      2.3591     15.0641
   110         C          5.2779      4.6935     15.0640
   111         C          4.7911      5.9263     15.3102
   112         C          6.5717      4.5366     14.6470
   113         C          7.5696      5.5171     14.8959
   114         C          6.9004      3.2890     14.0983
   115         C          5.6910      7.0035     15.2928
   116         C         11.4037      3.0935     15.1453
   117         C          8.1569      0.9655      9.2664
   118         C         12.5609      2.3291     15.0340
   119         C          8.9247      5.0969     14.8309
   120         C          8.4685      2.5622     12.2962
   121         C          8.1703      3.2178     13.4908
   122         C          9.2229      3.9024     14.1754
   123         C         13.6957      1.2059     11.4887
   124         C         11.7021      2.1003     10.3896
   125         C         10.4913      0.5197      9.2663
   126         C         12.1146      2.3297     12.6995
   127         C         12.6021      2.0830     11.4670
   128         C         11.7240      1.0066      9.5125
   129         C         13.6784      0.1285     10.5888
   130         C         10.8220      2.7460     12.8567
   131         C          9.8235      2.4973     11.8759
   132         C          9.4438      1.3114      9.7705
   133         C         12.9069      1.8249     13.7472
   134         C         10.4927      3.2949     14.1041
   135         C         12.8014      0.1066      9.4952
   136         C         17.2865      4.5919      7.8980
   137         C         20.5201      6.4985      8.3599
   138         C         20.8185      7.6931      9.0155
   139         C         16.8734      6.9019      8.1269
   140         C         16.3866      5.6692      7.8807
   141         C         18.1668      7.0589      8.5438
   142         C         19.1652      6.0783      8.2950
   143         C          3.0935     15.1453     11.4037
   144         C          2.3291     15.0339     12.5609
   145         C          0.9655      9.2664      8.1570
   146         C          2.5622     12.2962      8.4685
   147         C          5.0969     14.8310      8.9247
   148         C          3.9023     14.1754      9.2231
   149         C          3.2178     13.4908      8.1701
   150         C          2.1003     10.3896     11.7021
   151         C          1.2059     11.4888     13.6957
   152         C          2.3292     12.6996     12.1152
   153         C          0.5197      9.2663     10.4913
   154         C          1.0066      9.5125     11.7240
   155         C          0.1285     10.5888     13.6784
   156         C          2.0830     11.4669     12.6021
   157         C          2.7461     12.8567     10.8218
   158         C          2.4973     11.8760      9.8235
   159         C          1.8249     13.7471     12.9068
   160         C          1.3114      9.7705      9.4438
   161         C          3.2950     14.1041     10.4926
   162         C          0.1066      9.4952     12.8013
   163         C         17.5849      9.3476      8.8912
   164         C         19.6410     11.7872     14.6889
   165         C         22.9992      8.5020      8.0456
   166         C         16.4277      9.2362      8.1268
   167         C         19.7524     10.6300     13.9245
   168         C         22.4901     14.7224     14.1577
   169         C         20.0640      9.0332     10.8947
   170         C         19.7655      8.3777      9.7001
   171         C         21.2955     15.0208     14.8132
   172         C         22.0867     11.0757     13.9246
   173         C         21.9297     12.3691     14.3415
   174         C         22.4173      8.8494     10.3342
   175         C         22.9104     13.3674     14.0927
   176         C         21.4189      9.0982     11.3149
   177         C         21.0392     10.2841     13.4204
   178         C         18.4961      8.3064      9.0927
   179         C         20.6822     12.6983     14.8904
   180         C         22.0880      8.3005      9.0868
   181         C          7.6226     16.0818      7.9494
   182         C          8.0456     22.9992      8.5020
   183         C          8.8912     17.5849      9.3476
   184         C         14.6889     19.6410     11.7872
   185         C          8.1268     16.4277      9.2362
   186         C         13.9245     19.7524     10.6300
   187         C         10.8947     20.0640      9.0332
   188         C         14.1577     22.4901     14.7224
   189         C          9.7001     19.7656      8.3777
   190         C         14.8132     21.2955     15.0208
   191         C         13.9246     22.0867     11.0757
   192         C         10.3342     22.4173      8.8494
   193         C         14.3415     21.9297     12.3691
   194         C         11.3149     21.4189      9.0982
   195         C         14.0927     22.9104     13.3675
   196         C         13.4204     21.0392     10.2841
   197         C          9.0868     22.0880      8.3005
   198         C          9.0927     18.4961      8.3064
   199         C         14.8904     20.6822     12.6983
   200         C         20.4867     17.2014     13.8433
   201         C         19.7223     18.3586     13.9547
   202         C         16.6924     19.9554     14.2663
   203         C         15.4978     20.6110     13.9679
   204         C         19.2181     18.7046     15.2415
   205         C         20.6882     16.2903     14.8845
   206         C          3.5499      0.1917     20.0974
   207         C          2.7042      5.6060     20.9430
   208         C          3.4686      6.7632     20.8317
   209         C          0.7009      3.1270     20.6287
   210         C          3.2355      2.6708     18.0940
   211         C          2.5800      2.3724     19.2885
   212         C          1.8953      3.4253     19.9731
   213         C          3.6975      5.9043     16.1872
   214         C          3.4685      6.3174     18.4974
   215         C          3.7148      6.8045     17.2647
   216         C          1.2613      0.7736     20.4448
   217         C          3.0517      5.0241     18.6544
   218         C          0.2804      1.7719     20.6937
   219         C          3.3005      4.0258     17.6736
   220         C          4.4864      3.6461     15.5682
   221         C          3.9728      7.1091     19.5449
   222         C          2.5086      1.1029     19.8959
   223         C          2.5028      4.6948     19.9018
   224         C          7.9493      7.6226     16.0817
   225         C         20.8618      3.4387     22.2254
   226         C         20.8617      1.1042     22.6709
   227         C         21.3659      2.1515     21.8796
   228         C          4.5918      7.8979     17.2865
   229         C          6.4985      8.3599     20.5201
   230         C          7.6931      9.0155     20.8185
   231         C          6.9019      8.1271     16.8737
   232         C          5.6692      7.8807     16.3866
   233         C          7.0589      8.5438     18.1668
   234         C          6.0783      8.2950     19.1651
   235         C          8.5020      8.0456     22.9992
   236         C         11.7872     14.6889     19.6410
   237         C          9.3475      8.8912     17.5849
   238         C         10.6300     13.9245     19.7524
   239         C          9.2363      8.1269     16.4277
   240         C          9.0332     10.8946     20.0640
   241         C         14.7224     14.1577     22.4901
   242         C         15.0208     14.8132     21.2955
   243         C          8.3777      9.7001     19.7657
   244         C         11.0757     13.9246     22.0867
   245         C          8.8494     10.3342     22.4173
   246         C         12.3691     14.3415     21.9297
   247         C          9.0982     11.3149     21.4189
   248         C         13.3674     14.0927     22.9104
   249         C         10.2841     13.4204     21.0392
   250         C          8.3004      9.0868     22.0880
   251         C         12.6983     14.8904     20.6822
   252         C          8.3064      9.0927     18.4959
   253         C         17.2014     13.8433     20.4867
   254         C         18.3586     13.9547     19.7223
   255         C         19.9554     14.2663     16.6924
   256         C         20.6110     13.9678     15.4978
   257         C         18.7046     15.2415     19.2181
   258         C         16.2903     14.8845     20.6882
   259         C          3.4385     22.2254     20.8618
   260         C          1.1041     22.6712     20.8617
   261         C          2.1517     21.8795     21.3660
   262         C         13.8433     20.4867     17.2014
   263         C         13.9547     19.7223     18.3586
   264         C         14.2663     16.6924     19.9554
   265         C         13.9678     15.4978     20.6110
   266         C         15.2415     19.2181     18.7046
   267         C         14.8845     20.6882     16.2903
   268         C         21.0906     21.9851     23.0841
   269         C         21.9850     23.0844     21.0906
   270         C         23.0842     21.0908     21.9849
   271         C         18.5990     19.4934     17.4998
   272         C         17.4998     18.5991     19.4934
   273         C         19.4934     17.4998     18.5990
   274         C         17.9129     16.2890     19.7224
   275         C         19.7224     17.9129     16.2890
   276         C         16.2890     19.7224     17.9129
   277         C         22.1843     21.1079     23.0624
   278         C         19.4761     18.3998     17.5217
   279         C         23.0625     22.1840     21.1081
   280         C         17.5217     19.4761     18.3998
   281         C         21.1079     23.0623     22.1845
   282         C         18.3998     17.5217     19.4761
   283         C         16.6196     16.1320     20.1392
   284         C         20.1392     16.6196     16.1320
   285         C         16.1319     20.1392     16.6196
   286         C         15.6212     17.1126     19.8905
   287         C         19.8905     15.6212     17.1126
   288         C         17.1126     19.8905     15.6212
   289         H         13.8702      6.2272      1.2739
   290         H          9.4431      7.2964      1.6082
   291         H         15.2409      4.1895      1.4987
   292         H         11.7386      7.6613      2.0948
   293         H         21.9170      2.2748      5.3682
   294         H         19.6680      4.5238      0.4295
   295         H         21.6922      3.6454      7.4060
   296         H         21.0961      0.1431      3.9341
   297         H         17.5363      3.7029      1.8636
   298         H          1.2739     13.8702      6.2272
   299         H          1.4987     15.2409      4.1895
   300         H          1.6082      9.4431      7.2964
   301         H          2.0948     11.7386      7.6613
   302         H         15.2983      9.7318      5.6546
   303         H         22.7614      8.0725      7.0716
   304         H         16.1193     11.1660      3.5229
   305         H         15.8945     13.2037      2.1523
   306         H          5.3682     21.9170      2.2748
   307         H          0.4295     19.6680      4.5238
   308         H          7.4060     21.6922      3.6454
   309         H          1.8636     17.5363      3.7029
   310         H          3.9341     21.0961      0.1431
   311         H          7.8926     21.3273      5.9408
   312         H         21.5827     21.0386      4.2990
   313         H          6.2272      1.2739     13.8702
   314         H          4.1895      1.4987     15.2409
   315         H          7.2964      1.6082      9.4431
   316         H          7.6613      2.0948     11.7386
   317         H          9.7318      5.6546     15.2983
   318         H         21.3273      5.9408      7.8926
   319         H          5.6546     15.2983      9.7318
   320         H         17.8227     10.3215      9.3207
   321         H         18.6671     12.0249     15.1184
   322         H         15.7849     10.0967      7.9500
   323         H         18.8919      9.9872     13.7478
   324         H         19.2568      9.5006     11.4523
   325         H          3.5229     16.1193     11.1660
   326         H          7.0716     22.7614      8.0725
   327         H          2.1523     15.8945     13.2037
   328         H         15.1184     18.6671     12.0249
   329         H          9.3207     17.8227     10.3215
   330         H         13.7478     18.8919      9.9872
   331         H          7.9500     15.7849     10.0967
   332         H         11.4523     19.2568      9.5006
   333         H         20.9161     16.9637     12.8694
   334         H         19.5455     19.0014     13.0942
   335         H         23.0478     15.5296     13.6903
   336         H         17.2501     19.4880     13.4591
   337         H          2.2748      5.3682     21.9170
   338         H          4.5238      0.4295     19.6680
   339         H          3.6454      7.4060     21.6922
   340         H          0.1431      3.9341     21.0961
   341         H          3.7029      1.8636     17.5363
   342         H          8.0725      7.0716     22.7614
   343         H         11.1660      3.5229     16.1193
   344         H         13.2037      2.1523     15.8945
   345         H         21.0386      4.2990     21.5827
   346         H          5.9408      7.8926     21.3273
   347         H         10.3216      9.3207     17.8227
   348         H         12.0249     15.1184     18.6671
   349         H         10.0967      7.9500     15.7850
   350         H          9.9872     13.7478     18.8919
   351         H          9.5006     11.4523     19.2568
   352         H         16.9637     12.8694     20.9161
   353         H         19.0014     13.0942     19.5455
   354         H         19.4880     13.4591     17.2501
   355         H         15.5296     13.6903     23.0478
   356         H          4.2990     21.5827     21.0386
   357         H         12.8694     20.9161     16.9637
   358         H         13.0942     19.5455     19.0014
   359         H         13.4591     17.2501     19.4880
   360         H         13.6903     23.0478     15.5296

 General Reference for PM7:
 "Optimization of Parameters for Semiempirical Methods VI: More Modifications to the 
 NDDO Approximations and Re-optimization of Parameters", J. J. P. Stewart, J. Mol. Mod., 1:32, 19 (2013)
 https://link.springer.com/article/10.1007/s00894-012-1667-x

           Empirical Formula: C264 H72 N24  =   360 atoms



      RHF CALCULATION, NO. OF DOUBLY OCCUPIED LEVELS = 624


 -------------------------------------------------------------------------------
 PM7 CHARGE=0 NOOPT




     NO PARAMETERS MARKED FOR OPTIMIZATION, SO 1SCF WAS USED  
     SCF FIELD WAS ACHIEVED                                   


                              PM7 CALCULATION
                                                       MOPAC v22.1.0 Linux
                                                       Thu Feb  1 10:36:42 2024




          FINAL HEAT OF FORMATION =       3744.09095 KCAL/MOL =   15665.27654 KJ/MOL
          H.o.F. per unit cell    =        156.00379 KCAL, for 24 unit cells, unit cell = C11 H3 N1



          IONIZATION POTENTIAL    =          7.398148 EV
          HOMO LUMO ENERGIES (EV) =         -7.398 -2.423
          NO. OF FILLED LEVELS    =        624
          MOLECULAR WEIGHT        =       3579.6336

                   THE SYSTEM IS A SOLID


                UNIT CELL TRANSLATION VECTORS

              X                Y              Z
    T1 =    23.1909010      0.0000000      0.0000000
    T2 =     0.0000000     23.1909010      0.0000000
    T3 =     0.0000000      0.0000000     23.1909010

          VOLUME OF UNIT CELL     =      12472.481 CUBIC ANGSTROMS

          DENSITY                 =          0.477 GRAMS/CC
                              A   =         23.191 ANGSTROMS
                              B   =         23.191 ANGSTROMS
                              C   =         23.191 ANGSTROMS
                            ALPHA =         90.000 DEGREES
                            BETA  =         90.000 DEGREES
                            GAMMA =         90.000 DEGREES



          SCF CALCULATIONS        =          1

          WALL-CLOCK TIME         =          2 MINUTES AND 34.148 SECONDS
          COMPUTATION TIME        =          2 MINUTES AND 34.130 SECONDS




   ATOM   CHEMICAL          X               Y               Z
  NUMBER   SYMBOL      (ANGSTROMS)     (ANGSTROMS)     (ANGSTROMS)

     1       N         15.39996419      7.07417563      6.71768510   
     2       N         16.47321590      3.80453688      4.52127487   
     3       N          6.71770829     15.39998738      7.07419882   
     4       N         10.67546746     10.31900012      1.99318837   
     5       N         12.87192407     13.58863887      0.91998304   
     6       N          4.52127487     16.47321590      3.80451369   
     7       N          7.79091362     18.66962613      4.87776540   
     8       N         21.19773582     22.27089477      1.27654315   
     9       N          7.07426840      6.71754596     15.39980185   
    10       N         13.58905630      0.91958880     12.87197045   
    11       N         10.31897693      1.99318837     10.67549065   
    12       N         18.66964932      4.87771902      7.79091362   
    13       N          0.91998304     12.87190088     13.58863887   
    14       N          1.99318837     10.67546746     10.31900012   
    15       N         21.91445062      9.60226213     12.51543354   
    16       N         12.51541035     21.91442743      9.60223894   
    17       N          3.80430497      4.52120530     16.47347100   
    18       N         22.27126582      1.27651995     21.19743434   
    19       N          4.87771902      7.79089043     18.66967251   
    20       N          9.60223894     12.51541035     21.91445062   
    21       N          1.27647357     21.19775901     22.27087158   
    22       N         16.11672537     18.31315879     19.38636412   
    23       N         19.38636412     16.11672537     18.31315879   
    24       N         18.31313560     19.38638731     16.11670218   
    25       C         14.29969508      5.98946762      2.24787084   
    26       C         15.06409037      4.83226485      2.35923355   
    27       C         15.06402080      5.27799397      4.69356007   
    28       C         15.31021540      4.79110100      5.92624922   
    29       C         14.64711797      6.57132733      4.53651129   
    30       C         14.89588677      7.56971880      5.51718492   
    31       C         14.09818935      6.90063812      3.28904953   
    32       C         15.29291499      5.69109349      7.00358253   
    33       C         20.09737395      3.54973845      0.19185832   
    34       C         20.94303016      2.70422139      5.60595969   
    35       C         20.83166745      3.46863987      6.76318565   
    36       C         20.62865430      0.70085222      3.12703790   
    37       C         18.09400478      3.23550174      2.67075692   
    38       C         19.28849852      2.57994135      2.37249875   
    39       C         19.97316349      1.89529958      3.42527289   
    40       C         16.18727209      3.69748768      5.90433382   
    41       C         18.49734093      3.46854711      6.31743334   
    42       C         17.26467497      3.71478809      6.80439588   
    43       C         20.44477365      1.26107481      0.77404270   
    44       C         18.65443609      3.05166747      5.02414637   
    45       C         20.69358883      0.28060990      1.77178484   
    46       C         17.67369289      3.30043627      4.02575489   
    47       C         15.56826056      4.48632618      3.64600388   
    48       C         19.54487393      3.97283325      7.10914751   
    49       C         19.89596098      2.50883805      1.10265777   
    50       C         19.90180508      2.50278523      4.69488195   
    51       C          2.24787084     14.29969508      5.98946762   
    52       C          2.35923355     15.06409037      4.83226485   
    53       C          4.69356007     15.06399761      5.27801716   
    54       C          5.92624922     15.31021540      4.79110100   
    55       C          4.53651129     14.64711797      6.57132733   
    56       C          5.51718492     14.89588677      7.56971880   
    57       C          3.28904953     14.09818935      6.90061493   
    58       C          7.00360572     15.29291499      5.69109349   
    59       C         15.14530491     11.40368494      3.09348067   
    60       C         15.03394220     12.56091090      2.32908538   
    61       C          9.26636512      8.15695880      0.96546040   
    62       C         12.29623315      8.46850536      2.56222351   
    63       C         14.83095224      8.92464720      5.09694260   
    64       C         14.17539185      9.22306771      3.90233291   
    65       C         13.49084284      8.17008485      3.21778390   
    66       C         11.48879555     13.69571126      1.20585728   
    67       C         10.38957003     11.70208226      2.10026076   
    68       C         12.69961568     12.11518178      2.32917814   
    69       C          9.26627236     10.49128532      0.51970809   
    70       C         10.58882625     13.67841085      0.12852397   
    71       C         11.46692653     12.60207475      2.08296035   
    72       C          9.51249015     11.72395128      1.00662425   
    73       C         12.85666446     10.82184842      2.74605778   
    74       C         11.87599083      9.82345695      2.49728898   
    75       C         13.74714868     12.90684957      1.82491519   
    76       C          9.77055850      9.44375232      1.31142226   
    77       C         14.10412622     10.49256082      3.29498640   
    78       C          9.49518974     12.80133097      0.10663176   
    79       C         16.08177668      7.94944662      7.62264044   
    80       C          5.60595969     20.94300697      2.70424458   
    81       C          0.19174237     20.09742033      3.54983122   
    82       C          6.76318565     20.83166745      3.46863987   
    83       C          2.67080330     18.09395840      3.23550174   
    84       C          3.12692195     20.62870068      0.70078265   
    85       C          3.42534246     19.97309391      1.89539234   
    86       C          2.37238279     19.28856809      2.57994135   
    87       C          5.90435701     16.18729528      3.69746449   
    88       C          6.31745653     18.49734093      3.46857030   
    89       C          6.80434950     17.26465178      3.71476490   
    90       C          5.02412317     18.65438971      3.05166747   
    91       C          0.77353250     20.44486641      1.26121396   
    92       C          4.02573170     17.67371608      3.30043627   
    93       C          1.77203994     20.69358883      0.28056352   
    94       C          7.10912432     19.54487393      3.97281006   
    95       C          3.64602707     15.56826056      4.48632618   
    96       C          4.69483557     19.90185147      2.50273885   
    97       C          1.10288968     19.89591460      2.50869891   
    98       C          7.89798601     17.28654399      4.59184478   
    99       C          8.35994876     20.52012089      6.49853109   
   100       C          9.01550915     20.81851821      7.69309440   
   101       C          8.12690339     16.87344447      6.90189043   
   102       C          7.88068560     16.38655150      5.66922447   
   103       C          8.54378303     18.16675463      7.05893921   
   104       C          8.29501423     19.16516930      6.07824239   
   105       C         22.22546379     20.86179243      3.43851489   
   106       C         22.67121610     20.86172286      1.10425794   
   107       C         21.87947874     21.36600900      2.15162860   
   108       C          5.98956038      2.24794042     14.29967189   
   109       C          4.83221847      2.35911760     15.06409037   
   110       C          5.27785482      4.69353688     15.06397442   
   111       C          4.79114738      5.92627241     15.31021540   
   112       C          6.57165200      4.53658086     14.64704840   
   113       C          7.56960285      5.51713854     14.89586358   
   114       C          6.90042940      3.28897996     14.09825892   
   115       C          5.69100072      7.00351296     15.29284542   
   116       C         11.40366175      3.09350386     15.14525853   
   117       C          8.15693561      0.96546040      9.26636512   
   118       C         12.56091090      2.32910857     15.03398858   
   119       C          8.92471677      5.09687303     14.83092905   
   120       C          8.46845898      2.56220032     12.29623315   
   121       C          8.17027038      3.21780709     13.49079646   
   122       C          9.22290537      3.90242567     14.17541505   
   123       C         13.69573445      1.20585728     11.48874916   
   124       C         11.70210545      2.10026076     10.38959322   
   125       C         10.49126213      0.51973128      9.26629555   
   126       C         12.11455563      2.32966515     12.69954611   
   127       C         12.60209794      2.08296035     11.46697291   
   128       C         11.72395128      1.00662425      9.51249015   
   129       C         13.67838766      0.12852397     10.58880306   
   130       C         10.82198757      2.74601140     12.85666446   
   131       C          9.82348014      2.49728898     11.87594445   
   132       C          9.44375232      1.31139907      9.77053531   
   133       C         12.90691914      1.82486881     13.74717187   
   134       C         10.49269997      3.29494002     14.10414941   
   135       C         12.80135416      0.10663176      9.49521293   
   136       C         17.28652080      4.59186797      7.89796282   
   137       C         20.52009770      6.49850790      8.35992557   
   138       C         20.81854140      7.69311759      9.01550915   
   139       C         16.87344447      6.90191362      8.12688020   
   140       C         16.38657469      5.66920128      7.88068560   
   141       C         18.16677783      7.05893921      8.54378303   
   142       C         19.16519250      6.07828877      8.29503742   
   143       C          3.09348067     15.14530491     11.40370813   
   144       C          2.32908538     15.03394220     12.56091090   
   145       C          0.96546040      9.26636512      8.15695880   
   146       C          2.56222351     12.29623315      8.46850536   
   147       C          5.09694260     14.83095224      8.92467039   
   148       C          3.90233291     14.17539185      9.22306771   
   149       C          3.21778390     13.49084284      8.17010804   
   150       C          2.10026076     10.38957003     11.70208226   
   151       C          1.20588047     11.48881874     13.69571126   
   152       C          2.32915495     12.69961568     12.11518178   
   153       C          0.51973128      9.26627236     10.49128532   
   154       C          1.00662425      9.51249015     11.72397447   
   155       C          0.12852397     10.58882625     13.67841085   
   156       C          2.08296035     11.46692653     12.60207475   
   157       C          2.74605778     12.85666446     10.82184842   
   158       C          2.49728898     11.87599083      9.82345695   
   159       C          1.82491519     13.74714868     12.90684957   
   160       C          1.31139907      9.77053531      9.44375232   
   161       C          3.29498640     14.10412622     10.49256082   
   162       C          0.10663176      9.49518974     12.80133097   
   163       C         17.58494131      9.34757966      8.89120592   
   164       C         19.64104659     11.78721606     14.68893117   
   165       C         22.99915863      8.50196983      8.04559609   
   166       C         16.42771535      9.23621695      8.12681063   
   167       C         19.75240930     10.62999010     13.92453588   
   168       C         22.49011835     14.72239564     14.15767401   
   169       C         20.06397905      9.03322699     10.89466785   
   170       C         19.76553535      8.37766660      9.70005816   
   171       C         21.29550866     15.02081615     14.81323440   
   172       C         22.08673582     11.07571922     13.92462864   
   173       C         21.92968704     12.36905258     14.34150828   
   174       C         22.41729892      8.84939272     10.33423654   
   175       C         22.91036067     13.36744405     14.09273948   
   176       C         21.41890745      9.09816152     11.31491017   
   177       C         21.03920282     10.28405143     13.42036569   
   178       C         18.49608862      8.30642416      9.09273485   
   179       C         20.68222528     12.69834018     14.89043690   
   180       C         22.08801132      8.30046410      9.08677478   
   181       C          7.62264044     16.08175349      7.94942343   
   182       C          8.04561928     22.99915863      8.50196983   
   183       C          8.89120592     17.58494131      9.34757966   
   184       C         14.68893117     19.64104659     11.78721606   
   185       C          8.12681063     16.42771535      9.23621695   
   186       C         13.92453588     19.75240930     10.62996691   
   187       C         10.89466785     20.06397905      9.03322699   
   188       C         14.15767401     22.49011835     14.72237245   
   189       C          9.70005816     19.76555854      8.37766660   
   190       C         14.81323440     21.29550866     15.02076977   
   191       C         13.92460545     22.08673582     11.07569603   
   192       C         10.33423654     22.41732212      8.84939272   
   193       C         14.34153147     21.92966385     12.36909896   
   194       C         11.31493336     21.41888425      9.09816152   
   195       C         14.09273948     22.91036067     13.36746725   
   196       C         13.42036569     21.03920282     10.28405143   
   197       C          9.08675159     22.08798813      8.30046410   
   198       C          9.09271165     18.49606543      8.30640097   
   199       C         14.89041371     20.68224848     12.69831699   
   200       C         20.48665642     17.20143338     13.84334453   
   201       C         19.72226113     18.35863615     13.95466086   
   202       C         16.69239310     19.95537607     14.26625380   
   203       C         15.49778341     20.61095965     13.96785648   
   204       C         19.21809094     18.70459801     15.24147757   
   205       C         20.68818535     16.29026288     14.88450003   
   206       C          3.54987760      0.19174237     20.09739714   
   207       C          2.70422139      5.60595969     20.94303016   
   208       C          3.46863987      6.76318565     20.83166745   
   209       C          0.70085222      3.12699152     20.62865430   
   210       C          3.23550174      2.67075692     18.09400478   
   211       C          2.57996455      2.37238279     19.28852171   
   212       C          1.89534596      3.42534246     19.97314030   
   213       C          3.69748768      5.90428744     16.18720252   
   214       C          3.46854711      6.31741015     18.49736412   
   215       C          3.71483448      6.80448864     17.26474454   
   216       C          1.26128353      0.77355569     20.44482003   
   217       C          3.05166747      5.02414637     18.65443609   
   218       C          0.28035480      1.77190079     20.69368159   
   219       C          3.30048265      4.02577808     17.67357693   
   220       C          4.48639575      3.64614303     15.56821418   
   221       C          3.97283325      7.10914751     19.54487393   
   222       C          2.50862933      1.10291287     19.89591460   
   223       C          2.50276204      4.69483557     19.90182827   
   224       C          7.94928428      7.62257087     16.08173030   
   225       C         20.86181562      3.43867723     22.22537103   
   226       C         20.86172286      1.10423475     22.67091462   
   227       C         21.36591624      2.15148946     21.87961788   
   228       C          4.59182159      7.89791644     17.28647441   
   229       C          6.49848471      8.35992557     20.52014408   
   230       C          7.69314078      9.01553234     20.81849502   
   231       C          6.90191362      8.12711211     16.87369957   
   232       C          5.66922447      7.88073198     16.38664426   
   233       C          7.05889283      8.54375984     18.16675463   
   234       C          6.07828877      8.29503742     19.16514611   
   235       C          8.50196983      8.04559609     22.99915863   
   236       C         11.78721606     14.68893117     19.64104659   
   237       C          9.34751008      8.89120592     17.58494131   
   238       C         10.62999010     13.92453588     19.75240930   
   239       C          9.23633290      8.12685701     16.42773854   
   240       C          9.03322699     10.89464466     20.06395586   
   241       C         14.72239564     14.15767401     22.49011835   
   242       C         15.02081615     14.81323440     21.29550866   
   243       C          8.37766660      9.70010454     19.76567450   
   244       C         11.07569603     13.92460545     22.08673582   
   245       C          8.84939272     10.33423654     22.41734531   
   246       C         12.36907577     14.34150828     21.92968704   
   247       C          9.09816152     11.31491017     21.41890745   
   248       C         13.36744405     14.09273948     22.91036067   
   249       C         10.28405143     13.42036569     21.03920282   
   250       C          8.30044090      9.08677478     22.08798813   
   251       C         12.69831699     14.89043690     20.68222528   
   252       C          8.30644735      9.09266527     18.49594947   
   253       C         17.20143338     13.84332134     20.48665642   
   254       C         18.35863615     13.95466086     19.72226113   
   255       C         19.95539926     14.26625380     16.69239310   
   256       C         20.61095965     13.96781010     15.49778341   
   257       C         18.70459801     15.24147757     19.21806775   
   258       C         16.29026288     14.88450003     20.68818535   
   259       C          3.43849170     22.22544060     20.86181562   
   260       C          1.10411880     22.67123929     20.86172286   
   261       C          2.15169818     21.87945555     21.36603219   
   262       C         13.84332134     20.48665642     17.20143338   
   263       C         13.95468405     19.72226113     18.35863615   
   264       C         14.26625380     16.69239310     19.95539926   
   265       C         13.96783329     15.49778341     20.61095965   
   266       C         15.24145438     19.21809094     18.70459801   
   267       C         14.88452323     20.68816215     16.29028607   
   268       C         21.09059386     21.98513648     23.08410690   
   269       C         21.98495096     23.08438519     21.09061705   
   270       C         23.08424605     21.09075620     21.98492777   
   271       C         18.59903303     19.49343651     17.49983070   
   272       C         17.49980751     18.59905622     19.49343651   
   273       C         19.49343651     17.49983070     18.59903303   
   274       C         17.91288384     16.28901057     19.72235389   
   275       C         19.72237708     17.91286065     16.28901057   
   276       C         16.28901057     19.72235389     17.91290703   
   277       C         22.18429994     21.10791746     23.06237703   
   278       C         19.47613610     18.39980000     17.52169972   
   279       C         23.06251617     22.18404484     21.10805661   
   280       C         17.52169972     19.47613610     18.39980000   
   281       C         21.10787108     23.06228426     22.18446228   
   282       C         18.39980000     17.52167653     19.47613610   
   283       C         16.61962006     16.13196179     20.13923353   
   284       C         20.13923353     16.61959687     16.13196179   
   285       C         16.13193860     20.13923353     16.61959687   
   286       C         15.62115900     17.11263542     19.89046473   
   287       C         19.89046473     15.62115900     17.11263542   
   288       C         17.11263542     19.89046473     15.62115900   
   289       H         13.87024598      6.22722074      1.27392257   
   290       H          9.44314936      7.29643723      1.60824260   
   291       H         15.24087461      4.18948265      1.49871198   
   292       H         11.73856155      7.66134605      2.09483409   
   293       H         21.91697843      2.27479548      5.36822976   
   294       H         19.66797123      4.52382587      0.42949549   
   295       H         21.69218902      3.64542411      7.40596785   
   296       H         21.09606691      0.14311105      3.93410445   
   297       H         17.53628680      3.70291435      1.86362080   
   298       H          1.27392257     13.87024598      6.22722074   
   299       H          1.49871198     15.24087461      4.18948265   
   300       H          1.60824260      9.44314936      7.29643723   
   301       H          2.09483409     11.73856155      7.66134605   
   302       H         15.29834166      9.73182970      5.65461420   
   303       H         22.76140551      8.07252073      7.07164782   
   304       H         16.11925318     11.16595501      3.52292977   
   305       H         15.89446377     13.20369310      2.15230114   
   306       H          5.36822976     21.91697843      2.27479548   
   307       H          0.42949549     19.66797123      4.52380268   
   308       H          7.40596785     21.69218902      3.64542411   
   309       H          1.86362080     17.53628680      3.70289116   
   310       H          3.93410445     21.09606691      0.14311105   
   311       H          7.89255934     21.32728020      5.94083630   
   312       H         21.58265840     21.03859986      4.29901327   
   313       H          6.22722074      1.27389938     13.87024598   
   314       H          4.18950584      1.49873517     15.24087461   
   315       H          7.29643723      1.60824260      9.44314936   
   316       H          7.66134605      2.09483409     11.73856155   
   317       H          9.73182970      5.65463739     15.29834166   
   318       H         21.32728020      5.94083630      7.89255934   
   319       H          5.65461420     15.29834166      9.73182970   
   320       H         17.82267124     10.32152793      9.32065502   
   321       H         18.66709832     12.02494599     15.11838027   
   322       H         15.78493315     10.09673852      7.95002639   
   323       H         18.89188773      9.98720790     13.74775164   
   324       H         19.25679655      9.50061641     11.45233945   
   325       H          3.52292977     16.11925318     11.16595501   
   326       H          7.07164782     22.76140551      8.07252073   
   327       H          2.15230114     15.89446377     13.20369310   
   328       H         15.11838027     18.66709832     12.02494599   
   329       H          9.32065502     17.82267124     10.32152793   
   330       H         13.74775164     18.89188773      9.98720790   
   331       H          7.95002639     15.78493315     10.09673852   
   332       H         11.45233945     19.25679655      9.50061641   
   333       H         20.91610552     16.96368026     12.86937307   
   334       H         19.54547689     19.00141835     13.09416248   
   335       H         23.04778995     15.52955495     13.69028459   
   336       H         17.25006470     19.48800984     13.45907130   
   337       H          2.27479548      5.36822976     21.91697843   
   338       H          4.52380268      0.42949549     19.66797123   
   339       H          3.64542411      7.40596785     21.69218902   
   340       H          0.14311105      3.93410445     21.09606691   
   341       H          3.70289116      1.86362080     17.53628680   
   342       H          8.07252073      7.07164782     22.76140551   
   343       H         11.16595501      3.52292977     16.11925318   
   344       H         13.20369310      2.15230114     15.89446377   
   345       H         21.03859986      4.29896689     21.58270478   
   346       H          5.94083630      7.89255934     21.32728020   
   347       H         10.32155112      9.32065502     17.82267124   
   348       H         12.02494599     15.11838027     18.66709832   
   349       H         10.09673852      7.95002639     15.78495634   
   350       H          9.98720790     13.74775164     18.89188773   
   351       H          9.50061641     11.45233945     19.25679655   
   352       H         16.96368026     12.86937307     20.91610552   
   353       H         19.00141835     13.09416248     19.54547689   
   354       H         19.48800984     13.45907130     17.25006470   
   355       H         15.52955495     13.69028459     23.04778995   
   356       H          4.29901327     21.58265840     21.03859986   
   357       H         12.86937307     20.91610552     16.96368026   
   358       H         13.09416248     19.54547689     19.00141835   
   359       H         13.45907130     17.25006470     19.48800984   
   360       H         13.69028459     23.04778995     15.52955495   
   361      Tv         23.19090100      0.00000000      0.00000000   
   362      Tv          0.00000000     23.19090100      0.00000000   
   363      Tv          0.00000000      0.00000000     23.19090100   

                             CARTESIAN COORDINATES

   1    N       15.399964191     7.074175632     6.717685102
   2    N       16.473215898     3.804536882     4.521274868
   3    N        6.717708293    15.399987382     7.074198823
   4    N       10.675467457    10.319000118     1.993188368
   5    N       12.871924073    13.588638868     0.919983043
   6    N        4.521274868    16.473215898     3.804513691
   7    N        7.790913618    18.669626132     4.877765398
   8    N       21.197735823    22.270894766     1.276543146
   9    N        7.074268396     6.717545956    15.399801855
  10    N       13.589056304     0.919588797    12.871970455
  11    N       10.318976927     1.993188368    10.675490648
  12    N       18.669649323     4.877719016     7.790913618
  13    N        0.919983043    12.871900882    13.588638868
  14    N        1.993188368    10.675467457    10.319000118
  15    N       21.914450618     9.602262132    12.515433543
  16    N       12.515410352    21.914427427     9.602238941
  17    N        3.804304973     4.521205295    16.473470998
  18    N       22.271265821     1.276519955    21.197434341
  19    N        4.877719016     7.790890427    18.669672514
  20    N        9.602238941    12.515410352    21.914450618
  21    N        1.276473573    21.197759014    22.270871576
  22    N       16.116725368    18.313158793    19.386364118
  23    N       19.386364118    16.116725368    18.313158793
  24    N       18.313135602    19.386387309    16.116702177
  25    C       14.299695084     5.989467619     2.247870843
  26    C       15.064090372     4.832264850     2.359233550
  27    C       15.064020799     5.277993968     4.693560072
  28    C       15.310215404     4.791101001     5.926249223
  29    C       14.647117972     6.571327326     4.536511290
  30    C       14.895886767     7.569718805     5.517184921
  31    C       14.098189345     6.900638120     3.289049534
  32    C       15.292914992     5.691093487     7.003582529
  33    C       20.097373952     3.549738452     0.191858324
  34    C       20.943030157     2.704221393     5.605959690
  35    C       20.831667450     3.468639872     6.763185650
  36    C       20.628654303     0.700852219     3.127037900
  37    C       18.094004778     3.235501744     2.670756923
  38    C       19.288498516     2.579941354     2.372498745
  39    C       19.973163486     1.895299575     3.425272887
  40    C       16.187272089     3.697487683     5.904333822
  41    C       18.497340928     3.468547108     6.317433341
  42    C       17.264674968     3.714788095     6.804395881
  43    C       20.444773649     1.261074815     0.774042703
  44    C       18.654436092     3.051667472     5.024146365
  45    C       20.693588826     0.280609902     1.771784836
  46    C       17.673692888     3.300436267     4.025754886
  47    C       15.568260559     4.486326180     3.646003883
  48    C       19.544873927     3.972833250     7.109147511
  49    C       19.895960977     2.508838052     1.102657770
  50    C       19.901805084     2.502785227     4.694881953
  51    C        2.247870843    14.299695084     5.989467619
  52    C        2.359233550    15.064090372     4.832264850
  53    C        4.693560072    15.063997608     5.278017159
  54    C        5.926249223    15.310215404     4.791101001
  55    C        4.536511290    14.647117972     6.571327326
  56    C        5.517184921    14.895886767     7.569718805
  57    C        3.289049534    14.098189345     6.900614929
  58    C        7.003605720    15.292914992     5.691093487
  59    C       15.145304907    11.403684940     3.093480666
  60    C       15.033942200    12.560910900     2.329085378
  61    C        9.266365122     8.156958800     0.965460400
  62    C       12.296233146     8.468505364     2.562223506
  63    C       14.830952244     8.924647195     5.096942604
  64    C       14.175391854     9.223067710     3.902332911
  65    C       13.490842839     8.170084850     3.217783896
  66    C       11.488795546    13.695711258     1.205857279
  67    C       10.389570030    11.702082263     2.100260758
  68    C       12.699615678    12.115181782     2.329178142
  69    C        9.266272358    10.491285322     0.519708091
  70    C       10.588826251    13.678410846     0.128523973
  71    C       11.466926527    12.602074749     2.082960346
  72    C        9.512490154    11.723951282     1.006624249
  73    C       12.856664460    10.821848424     2.746057778
[...]
  293          H           0.164611        0.8354     0.83539
  294          H           0.164196        0.8358     0.83580
  295          H           0.164180        0.8358     0.83582
  296          H           0.173600        0.8264     0.82640
  297          H           0.173859        0.8261     0.82614
  298          H           0.163824        0.8362     0.83618
  299          H           0.164452        0.8355     0.83555
  300          H           0.164627        0.8354     0.83537
  301          H           0.174460        0.8255     0.82554
  302          H           0.173564        0.8264     0.82644
  303          H           0.163967        0.8360     0.83603
  304          H           0.164649        0.8354     0.83535
  305          H           0.164415        0.8356     0.83558
  306          H           0.164500        0.8355     0.83550
  307          H           0.164106        0.8359     0.83589
  308          H           0.164057        0.8359     0.83594
  309          H           0.174190        0.8258     0.82581
  310          H           0.173242        0.8268     0.82676
  311          H           0.174030        0.8260     0.82597
  312          H           0.164111        0.8359     0.83589
  313          H           0.164358        0.8356     0.83564
  314          H           0.164002        0.8360     0.83600
  315          H           0.164184        0.8358     0.83582
  316          H           0.173671        0.8263     0.82633
  317          H           0.173661        0.8263     0.82634
  318          H           0.174025        0.8260     0.82597
  319          H           0.172813        0.8272     0.82719
  320          H           0.164656        0.8353     0.83534
  321          H           0.163695        0.8363     0.83631
  322          H           0.163943        0.8361     0.83606
  323          H           0.164504        0.8355     0.83550
  324          H           0.173495        0.8265     0.82651
  325          H           0.164452        0.8355     0.83555
  326          H           0.164046        0.8360     0.83595
  327          H           0.164095        0.8359     0.83590
  328          H           0.164407        0.8356     0.83559
  329          H           0.164470        0.8355     0.83553
  330          H           0.163826        0.8362     0.83617
  331          H           0.163805        0.8362     0.83619
  332          H           0.173176        0.8268     0.82682
  333          H           0.164686        0.8353     0.83531
  334          H           0.163653        0.8363     0.83635
  335          H           0.172819        0.8272     0.82718
  336          H           0.173233        0.8268     0.82677
  337          H           0.164087        0.8359     0.83591
  338          H           0.164432        0.8356     0.83557
  339          H           0.164152        0.8358     0.83585
  340          H           0.173972        0.8260     0.82603
  341          H           0.173324        0.8267     0.82668
  342          H           0.164581        0.8354     0.83542
  343          H           0.164249        0.8358     0.83575
  344          H           0.164115        0.8359     0.83589
  345          H           0.164187        0.8358     0.83581
  346          H           0.173829        0.8262     0.82617
  347          H           0.164226        0.8358     0.83577
  348          H           0.164955        0.8350     0.83504
  349          H           0.164139        0.8359     0.83586
  350          H           0.164068        0.8359     0.83593
  351          H           0.173585        0.8264     0.82641
  352          H           0.163897        0.8361     0.83610
  353          H           0.164389        0.8356     0.83561
  354          H           0.174420        0.8256     0.82558
  355          H           0.174360        0.8256     0.82564
  356          H           0.163853        0.8361     0.83615
  357          H           0.164123        0.8359     0.83588
  358          H           0.163876        0.8361     0.83612
  359          H           0.173115        0.8269     0.82689
  360          H           0.173981        0.8260     0.82602


          ATOMIC ORBITAL ELECTRON POPULATIONS

     Atom    s        px        py        pz   
    1  N   1.53713   1.40491   1.11832   1.15839
    2  N   1.53726   1.15878   1.40563   1.11844
    3  N   1.53678   1.15760   1.40376   1.11790
    4  N   1.53727   1.15886   1.11844   1.40563
    5  N   1.53750   1.11861   1.40684   1.15946
    6  N   1.53735   1.11855   1.15889   1.40574
    7  N   1.53735   1.40659   1.11844   1.15903
    8  N   1.53716   1.40509   1.15833   1.11838
    9  N   1.53716   1.11838   1.15862   1.40597
   10  N   1.53726   1.40622   1.15892   1.11849
   11  N   1.53717   1.11836   1.40520   1.15848
   12  N   1.53735   1.11849   1.15899   1.40591
   13  N   1.53687   1.15812   1.11771   1.40700
   14  N   1.53757   1.40891   1.15961   1.11855
   15  N   1.53710   1.11813   1.40643   1.15838
   16  N   1.53699   1.15807   1.11814   1.40467
   17  N   1.53696   1.40502   1.11822   1.15820
   18  N   1.53721   1.15888   1.11857   1.40599
   19  N   1.53728   1.15863   1.40585   1.11844
   20  N   1.53717   1.40554   1.15868   1.11826
   21  N   1.53703   1.11816   1.40471   1.15810
   22  N   1.53693   1.11820   1.15773   1.40356
   23  N   1.53754   1.40612   1.11880   1.15927
   24  N   1.53703   1.15817   1.40469   1.11819
   25  C   1.07502   1.02975   0.98689   1.07130
   26  C   1.08137   1.00018   1.01515   1.00968
   27  C   1.03704   1.02374   0.97983   0.98365
   28  C   1.02533   1.17906   1.00798   0.97864
   29  C   1.04729   1.02390   0.97675   0.99884
   30  C   1.05792   0.97835   0.97145   0.86138
   31  C   1.04946   0.99017   0.97813   0.96958
   32  C   1.08112   0.96603   0.76627   0.92671
   33  C   1.07494   1.02985   1.07133   0.98698
   34  C   1.07485   1.07185   1.03171   0.98778
   35  C   1.08167   1.00933   0.99828   1.01423
   36  C   1.07482   1.08564   1.04377   1.01133
   37  C   1.07436   1.04529   1.08993   1.01156
   38  C   1.05361   0.96800   1.00547   0.97077
   39  C   1.05308   1.01004   0.97044   0.97145
   40  C   1.08097   0.92694   0.96699   0.76615
   41  C   1.03720   0.98329   1.02139   0.97927
   42  C   1.02523   0.97884   1.18009   1.00814
   43  C   1.04730   1.02385   0.99872   0.97674
   44  C   1.04701   0.99979   1.02760   0.97719
   45  C   1.05787   0.97823   0.86157   0.97142
   46  C   1.05850   0.86042   0.97370   0.97135
   47  C   1.03991   0.97392   0.95580   0.96577
   48  C   1.03965   0.96600   0.97531   0.95702
   49  C   1.04942   0.99042   0.96964   0.97817
   50  C   1.04980   0.96861   0.98656   0.97701
   51  C   1.07550   1.07039   1.02520   0.98479
   52  C   1.08071   1.01024   1.00475   1.01744
   53  C   1.03674   0.98415   1.02823   0.98125
   54  C   1.02573   0.97830   1.17541   1.00656
   55  C   1.04761   0.99709   1.01769   0.97563
   56  C   1.05665   0.86313   0.98941   0.97181
   57  C   1.04891   0.97102   0.99710   0.98014
   58  C   1.08112   0.92731   0.96769   0.76662
   59  C   1.07489   1.07181   0.98766   1.03142
   60  C   1.08167   1.00943   1.01429   0.99833
   61  C   1.08148   0.99965   1.00950   1.01494
   62  C   1.07438   1.04516   1.01157   1.08977
   63  C   1.07476   1.08579   1.01134   1.04387
   64  C   1.05312   1.00983   0.97142   0.97030
   65  C   1.05355   0.96813   0.97081   1.00569
   66  C   1.08104   0.76608   0.96522   0.92641
   67  C   1.08099   0.92683   0.76623   0.96633
   68  C   1.03724   0.98336   0.97938   1.02127
   69  C   1.03712   1.02265   0.98339   0.97975
   70  C   1.02511   1.00916   1.18136   0.97900
   71  C   1.02526   0.97890   1.00811   1.18016
   72  C   1.02533   1.17937   0.97876   1.00832
   73  C   1.04708   0.99978   0.97714   1.02722
   74  C   1.05846   0.86047   0.97133   0.97373
   75  C   1.03974   0.96592   0.95656   0.97485
   76  C   1.03984   0.97430   0.96591   0.95622
   77  C   1.04978   0.96869   0.97713   0.98679
   78  C   1.08123   0.96402   0.92610   0.76643
   79  C   1.03952   0.95783   0.96608   0.97596
   80  C   1.07476   0.98815   1.07193   1.03242
   81  C   1.07514   0.98623   1.02835   1.07103
   82  C   1.08172   1.01396   1.00931   0.99783
   83  C   1.07414   1.01188   1.04590   1.09262
   84  C   1.07506   1.01110   1.08275   1.04311
   85  C   1.05285   0.97191   1.01239   0.97152
   86  C   1.05380   0.97033   0.96684   1.00301
   87  C   1.08063   0.76601   0.92831   0.97138
   88  C   1.03718   0.97910   0.98336   1.02142
   89  C   1.02530   1.00749   0.97888   1.17928
   90  C   1.04698   0.97744   0.99993   1.02874
   91  C   1.04738   0.97640   1.02185   0.99823
   92  C   1.05893   0.97115   0.86017   0.96997
   93  C   1.05753   0.97154   0.98201   0.86195
   94  C   1.03962   0.95721   0.96595   0.97547
   95  C   1.04034   0.96545   0.97152   0.95340
   96  C   1.04983   0.97669   0.96841   0.98540
   97  C   1.04927   0.97879   0.99250   0.97006
   98  C   1.08103   0.96705   0.76611   0.92694
   99  C   1.07396   1.09382   1.01185   1.04625
  100  C   1.05386   1.00221   0.97023   0.96648
  101  C   1.03704   1.02241   0.97905   0.98330
  102  C   1.02529   1.17919   1.00869   0.97868
  103  C   1.04699   1.02895   0.97746   0.99999
  104  C   1.05905   0.96910   0.97118   0.85987
  105  C   1.08114   1.01597   1.00189   1.00978
  106  C   1.03687   0.98024   1.02546   0.98377
  107  C   1.03997   0.95524   0.97330   0.96574
  108  C   1.07491   0.98732   1.07156   1.03067
  109  C   1.08151   1.01477   1.00947   0.99959
  110  C   1.03704   0.97953   0.98352   1.02356
  111  C   1.02530   1.00803   0.97864   1.17864
  112  C   1.04715   0.97696   0.99924   1.02585
  113  C   1.05823   0.97141   0.86080   0.97508
  114  C   1.04960   0.97757   0.96907   0.98836
  115  C   1.08101   0.76610   0.92712   0.96760
  116  C   1.07491   0.98722   1.03041   1.07146
  117  C   1.08109   1.00985   1.01609   1.00212
  118  C   1.08143   1.01498   0.99992   1.00961
  119  C   1.07447   1.01146   1.04486   1.08880
  120  C   1.07467   1.01142   1.08701   1.04430
  121  C   1.05327   0.97121   1.00851   0.96956
  122  C   1.05339   0.97101   0.96883   1.00695
  123  C   1.08099   0.96749   0.92708   0.76606
  124  C   1.08089   0.76618   0.96900   0.92761
  125  C   1.03690   0.98380   0.98033   1.02551
  126  C   1.03706   0.97972   1.02315   0.98355
  127  C   1.02537   1.00749   1.17898   0.97870
  128  C   1.02544   0.97851   1.00756   1.17796
  129  C   1.02521   1.17984   0.97879   1.00850
  130  C   1.04703   0.97698   1.02509   0.99909
  131  C   1.05814   0.97135   0.97687   0.86117
  132  C   1.04004   0.96568   0.95509   0.97314
  133  C   1.04001   0.95602   0.97438   0.96574
  134  C   1.04956   0.97779   0.98927   0.96931
  135  C   1.08113   0.92696   0.76638   0.96684
  136  C   1.08102   0.76612   0.92668   0.96603
  137  C   1.07412   1.01178   1.04598   1.09253
  138  C   1.05382   0.97026   0.96656   1.00264
  139  C   1.03718   0.97901   0.98317   1.02108
  140  C   1.02524   1.00856   0.97884   1.17999
  141  C   1.04697   0.97740   1.00012   1.02913
  142  C   1.05884   0.97125   0.85995   0.97064
  143  C   1.07492   1.03171   1.07182   0.98795
  144  C   1.08165   0.99868   1.00959   1.01434
  145  C   1.08092   1.01697   1.00369   1.01032
  146  C   1.07353   1.09871   1.04763   1.01224
  147  C   1.07571   1.04148   1.07661   1.01060
  148  C   1.05237   0.97381   1.01707   0.97271
  149  C   1.05427   0.99789   0.96434   0.96949
  150  C   1.08048   0.97150   0.92830   0.76592
  151  C   1.08089   0.92749   0.76670   0.96846
  152  C   1.03695   1.02391   0.98373   0.97930
  153  C   1.03680   0.98099   1.02776   0.98435
  154  C   1.02585   1.00552   1.17389   0.97826
  155  C   1.02598   0.97791   1.00612   1.17237
  156  C   1.02548   1.17692   0.97844   1.00768
  157  C   1.04702   1.02962   1.00011   0.97761
  158  C   1.05980   0.96297   0.85920   0.97097
  159  C   1.04004   0.97335   0.96562   0.95598
  160  C   1.04052   0.95278   0.97058   0.96531
  161  C   1.04982   0.98419   0.96818   0.97652
  162  C   1.08041   0.76631   0.97351   0.92915
  163  C   1.07477   0.98815   1.07205   1.03258
  164  C   1.07576   1.07008   0.98394   1.02319
  165  C   1.07543   0.98538   1.02623   1.07069
  166  C   1.08176   1.01380   1.00919   0.99757
  167  C   1.08047   1.01061   1.01846   1.00678
  168  C   1.07555   1.04182   1.01058   1.07776
  169  C   1.07510   1.01118   1.08290   1.04309
  170  C   1.05279   0.97190   1.01280   0.97177
  171  C   1.05233   0.97419   0.97288   1.01754
  172  C   1.03648   0.98454   0.98185   1.03141
  173  C   1.04777   0.99671   0.97537   1.01610
  174  C   1.04753   0.97613   1.02008   0.99772
  175  C   1.05684   0.86296   0.97172   0.98777
  176  C   1.05761   0.97139   0.98108   0.86220
  177  C   1.04082   0.96516   0.95157   0.96898
  178  C   1.04990   0.97652   0.96815   0.98495
  179  C   1.04876   0.97141   0.98072   0.99840
  180  C   1.04910   0.97940   0.99411   0.97057
  181  C   1.03959   0.97558   0.95778   0.96599
  182  C   1.07516   1.07095   0.98612   1.02813
  183  C   1.07476   1.03251   0.98818   1.07190
  184  C   1.07475   1.03245   1.07185   0.98814
  185  C   1.08171   0.99790   1.01389   1.00922
  186  C   1.08169   0.99800   1.00927   1.01397
  187  C   1.07511   1.04294   1.01102   1.08216
  188  C   1.07409   1.09240   1.04581   1.01177
  189  C   1.05277   0.97189   0.97200   1.01320
  190  C   1.05371   1.00385   0.96728   0.97044
  191  C   1.03712   1.02185   0.98327   0.97903
  192  C   1.04742   0.99814   0.97632   1.02142
  193  C   1.04701   1.02839   0.99988   0.97739
  194  C   1.05739   0.86207   0.97158   0.98290
  195  C   1.05869   0.97086   0.86010   0.97122
  196  C   1.03957   0.97565   0.96599   0.95764
  197  C   1.04924   0.97020   0.97895   0.99301
  198  C   1.04984   0.98510   0.97662   0.96830
  199  C   1.04980   0.98577   0.96851   0.97679
  200  C   1.07437   1.03592   0.98972   1.07255
  201  C   1.08215   0.99474   1.01230   1.00880
  202  C   1.07491   1.04344   1.08393   1.01112
  203  C   1.05294   0.97114   1.01167   0.97177
  204  C   1.03915   0.97794   0.95969   0.96625
  205  C   1.05019   0.98083   0.97522   0.96733
  206  C   1.07476   1.07185   0.98815   1.03246
  207  C   1.07518   1.02823   0.98618   1.07103
  208  C   1.08112   1.00200   1.01605   1.00984
  209  C   1.07412   1.04585   1.01174   1.09252
  210  C   1.07501   1.08333   1.01106   1.04330
  211  C   1.05289   1.01202   0.97185   0.97133
  212  C   1.05374   0.96706   0.97037   1.00340
  213  C   1.08105   0.96791   0.76633   0.92722
  214  C   1.03691   1.02538   0.98029   0.98379
  215  C   1.02549   1.17746   1.00721   0.97849
  216  C   1.04699   0.99984   0.97741   1.02849
  217  C   1.04736   1.02209   0.97638   0.99830
  218  C   1.05878   0.86014   0.97125   0.97064
  219  C   1.05751   0.98139   0.97154   0.86187
  220  C   1.03987   0.95646   0.96587   0.97439
  221  C   1.04003   0.97310   0.95503   0.96571
  222  C   1.04980   0.96846   0.97674   0.98565
  223  C   1.04928   0.99231   0.97876   0.97003
  224  C   1.03993   0.96575   0.97420   0.95606
  225  C   1.08142   1.00030   1.00959   1.01514
  226  C   1.03706   1.02377   0.98368   0.97975
  227  C   1.03994   0.97405   0.96583   0.95583
  228  C   1.08080   0.92767   0.96917   0.76601
  229  C   1.07451   1.04454   1.08868   1.01164
  230  C   1.05331   0.96922   1.00757   0.97096
  231  C   1.03699   0.98370   1.02365   0.97959
  232  C   1.02539   0.97859   1.17862   1.00759
  233  C   1.04714   0.99906   1.02526   0.97709
  234  C   1.05838   0.86102   0.97455   0.97122
  235  C   1.07502   1.03016   1.07161   0.98703
  236  C   1.07462   0.98893   1.03420   1.07246
  237  C   1.07489   1.07144   1.03064   0.98738
  238  C   1.08205   1.01295   0.99575   1.00899
  239  C   1.08150   1.00957   0.99961   1.01480
  240  C   1.07461   1.08712   1.04457   1.01126
  241  C   1.07367   1.01200   1.09692   1.04730
  242  C   1.05423   0.96977   0.99891   0.96475
  243  C   1.05334   1.00794   0.96919   0.97125
  244  C   1.03733   0.97855   1.01918   0.98296
  245  C   1.04717   1.02554   0.99939   0.97678
  246  C   1.04680   0.97781   1.03203   1.00101
  247  C   1.05805   0.97733   0.86081   0.97150
  248  C   1.05943   0.97116   0.96567   0.85901
  249  C   1.03947   0.95836   0.97643   0.96615
  250  C   1.04966   0.98858   0.96899   0.97766
  251  C   1.05017   0.97564   0.98178   0.96743
  252  C   1.04954   0.96936   0.98887   0.97771
  253  C   1.07518   0.98591   1.07071   1.02763
  254  C   1.08101   1.01629   1.00998   1.00249
  255  C   1.07353   1.09839   1.01231   1.04748
  256  C   1.05427   0.99785   0.96929   0.96412
  257  C   1.04003   0.95467   0.96564   0.97316
  258  C   1.04907   0.97949   0.97079   0.99499
  259  C   1.08170   1.00926   1.01394   0.99792
  260  C   1.03710   0.98333   0.97904   1.02199
  261  C   1.03956   0.96599   0.95766   0.97570
  262  C   1.07504   1.07116   1.02927   0.98660
  263  C   1.08120   1.00963   1.00119   1.01556
  264  C   1.07547   1.01094   1.04175   1.07871
  265  C   1.05244   0.97246   0.97369   1.01659
  266  C   1.03983   0.96587   0.97423   0.95626
  267  C   1.04937   0.96981   0.99148   0.97848
  268  C   1.08084   0.96901   0.92763   0.76605
  269  C   1.08108   0.92711   0.76604   0.96779
  270  C   1.08104   0.76631   0.96702   0.92698
  271  C   1.08133   0.92613   0.96439   0.76633
  272  C   1.08102   0.76626   0.92740   0.96813
  273  C   1.08084   0.96834   0.76572   0.92729
  274  C   1.03695   0.98044   0.98394   1.02532
  275  C   1.03736   1.01829   0.97802   0.98287
  276  C   1.03694   0.98355   1.02452   0.97992
  277  C   1.02548   1.00749   1.17784   0.97845
  278  C   1.02498   1.18210   1.00908   0.97903
  279  C   1.02525   0.97870   1.00839   1.17956
  280  C   1.02529   0.97856   1.17911   1.00843
  281  C   1.02530   1.17874   0.97872   1.00742
  282  C   1.02538   1.00703   0.97855   1.17845
  283  C   1.04753   0.97617   0.99763   1.01949
  284  C   1.04669   1.03326   0.97819   1.00107
  285  C   1.04733   0.99856   1.02286   0.97655
  286  C   1.05697   0.97160   0.86286   0.98646
  287  C   1.05964   0.96391   0.97098   0.85900
  288  C   1.05761   0.86167   0.98106   0.97155
  289  H   0.83568
  290  H   0.83572
  291  H   0.83566
  292  H   0.82606
  293  H   0.83539
  294  H   0.83580
  295  H   0.83582
  296  H   0.82640
  297  H   0.82614
  298  H   0.83618
  299  H   0.83555
  300  H   0.83537
  301  H   0.82554
  302  H   0.82644
  303  H   0.83603
  304  H   0.83535
  305  H   0.83558
  306  H   0.83550
  307  H   0.83589
  308  H   0.83594
  309  H   0.82581
  310  H   0.82676
  311  H   0.82597
  312  H   0.83589
  313  H   0.83564
  314  H   0.83600
  315  H   0.83582
  316  H   0.82633
  317  H   0.82634
  318  H   0.82597
  319  H   0.82719
  320  H   0.83534
  321  H   0.83631
  322  H   0.83606
  323  H   0.83550
  324  H   0.82651
  325  H   0.83555
  326  H   0.83595
  327  H   0.83590
  328  H   0.83559
  329  H   0.83553
  330  H   0.83617
  331  H   0.83619
  332  H   0.82682
  333  H   0.83531
  334  H   0.83635
  335  H   0.82718
  336  H   0.82677
  337  H   0.83591
  338  H   0.83557
  339  H   0.83585
  340  H   0.82603
  341  H   0.82668
  342  H   0.83542
  343  H   0.83575
  344  H   0.83589
  345  H   0.83581
  346  H   0.82617
  347  H   0.83577
  348  H   0.83504
  349  H   0.83586
  350  H   0.83593
  351  H   0.82641
  352  H   0.83610
  353  H   0.83561
  354  H   0.82558
  355  H   0.82564
  356  H   0.83615
  357  H   0.83588
  358  H   0.83612
  359  H   0.82689
  360  H   0.82602

 **********************
 *                    *
 * JOB ENDED NORMALLY *
 *                    *
 **********************



 TOTAL JOB TIME:           154.25 SECONDS

 == MOPAC DONE ==
