 *******************************************************************************
 **                                                                           **
 **                              MOPAC v22.1.0                                **
 **                                                                           **
 *******************************************************************************
 **          Digital Object Identifier (DOI): 10.5281/zenodo.6511958          **
 **    Visit the DOI location for information on how to cite this program.    **
 *******************************************************************************

                              PM7 CALCULATION RESULTS

 *******************************************************************************
 *  CALCULATION DONE:                                Thu Feb  1 10:51:24 2024  *
 *  PM7        - The PM7 Hamiltonian to be used
 *  NOOPT      - DO NOT OPTIMIZE ANY COORDINATES
 *
 *
 *
 *                 CHARGE ON SYSTEM = 0
 *
 *
 *
 *  T=         - A TIME OF 172800.0 SECONDS REQUESTED
 *  DUMP=N     - RESTART FILE WRITTEN EVERY 7200.0 SECONDS REQUESTED
 *******************************************************************************
PM7 CHARGE=0 NOOPT


   ATOM   CHEMICAL          X               Y               Z
  NUMBER   SYMBOL      (ANGSTROMS)     (ANGSTROMS)     (ANGSTROMS)

     1       N         14.39884049      7.21240337      5.32337548   
     2       N         20.04859074      0.32637477      1.56265312   
     3       N         17.27562552      3.09933999      4.08709713   
     4       N          5.32337548     14.39884049      7.21240337   
     5       N         11.62587527      9.73684738      2.55041026   
     6       N          4.08709713     17.27562552      3.09933999   
     7       N          1.56265312     20.04859074      0.32637477   
     8       N          8.20016051     18.51190387      5.97612502   
     9       N          7.21240337      5.32337548     14.39884049   
    10       N          9.73684738      2.55041026     11.62587527   
    11       N         18.51190387      5.97612502      8.20016051   
    12       N          2.55041026     11.62587527      9.73684738   
    13       N         22.27262623     12.86215362     13.84991076   
    14       N         21.03634788      8.74909024     10.97312573   
    15       N         10.97312573     21.03634788      8.74909024   
    16       N         13.84991076     22.27262623     12.86215362   
    17       N          0.32637477      1.56265312     20.04859074   
    18       N          3.09933999      4.08709713     17.27562552   
    19       N          5.97612502      8.20016051     18.51190387   
    20       N          8.74909024     10.97312573     21.03634788   
    21       N         12.86215362     13.84991076     22.27262623   
    22       N         15.38659763     16.62287598     19.49966101   
    23       N         19.49966101     15.38659763     16.62287598   
    24       N         16.62287598     19.49966101     15.38659763   
    25       C         13.84116494      5.80163814      2.13709713   
    26       C         14.61359880      4.65977841      2.32848807   
    27       C         14.36080637      5.01892174      4.64981225   
    28       C         14.62620904      6.99045858      6.67881836   
    29       C         14.76469572      4.58766500      5.90053136   
    30       C         13.83167336      6.28609292      4.46834227   
    31       C         13.50683532      6.69554162      3.15988272   
    32       C         14.84121594      5.54841633      6.88467266   
    33       C         14.99104731      4.26135802      3.59909430   
    34       C         19.49091519      3.51265312      0.15188789   
    35       C         20.46190387      2.54166444      5.49786236   
    36       C         20.27051293      3.31409830      6.63972209   
    37       C         20.47598305      0.87333839      2.77576750   
    38       C         17.82256654      3.52673230      2.87398275   
    39       C         18.78019921      2.60555182      2.38758446   
    40       C         19.55480257      1.83094846      3.26216579   
    41       C         15.71432834      3.54171544      5.75108417   
    42       C         17.94918875      3.06130587      6.28057876   
    43       C         15.92018264      3.32670854      4.30904192   
    44       C         16.69846964      3.46519522      6.71183550   
    45       C         19.48142361      1.18140798      0.63634267   
    46       C         18.13065873      2.53217286      5.01340758   
    47       C         18.99990670      3.69154681      7.03814248   
    48       C         19.15658557      2.48986753      1.04579137   
    49       C         19.43911828      2.20733482      4.60395888   
    50       C          2.13709713     13.84116494      5.80163814   
    51       C          2.32848807     14.61359880      4.65977841   
    52       C          4.64981225     14.36080637      5.01892174   
    53       C          6.67881836     14.62620904      6.99045858   
    54       C          5.90053136     14.76469572      4.58766500   
    55       C          4.46834227     13.83167336      6.28609292   
    56       C          3.15988272     13.50683532      6.69554162   
    57       C          6.88467266     14.84121594      5.54841633   
    58       C          3.59909430     14.99104731      4.26135802   
    59       C         14.81215362     11.14761261      3.10808581   
    60       C         14.62076268     12.28947234      2.33565195   
    61       C          8.96384855      7.97823832      0.98997184   
    62       C         12.17281629      8.52373300      2.12301795   
    63       C         14.82623280      8.42551775      4.77643446   
    64       C         13.90505232      8.91191604      3.81880179   
    65       C         13.13044896      8.03733471      3.04419843   
    66       C         11.19816658     13.40753531      1.23492241   
    67       C         10.06457809     11.40083442      2.10803481   
    68       C         12.29943850     11.93032901      2.58844438   
    69       C          8.71105612     10.29956250      0.63082851   
    70       C         10.27043239      9.95879217      2.32304171   
    71       C         12.64020883     13.62254221      1.02906811   
    72       C         10.23741525     13.48405553      0.25078111   
    73       C         11.04871939     12.36158575      2.18455503   
    74       C          9.11494547     11.55028161      1.06208525   
    75       C         12.48090848     10.66315783      3.11757739   
    76       C         13.35015645     12.68789273      1.95818084   
    77       C          9.34129706      9.24884455      1.38839223   
    78       C         13.78936803     10.25370913      3.44241543   
    79       C          9.19146569     12.53442291      0.10133392   
    80       C          5.49786236     20.46190387      2.54166444   
    81       C          0.15188789     19.49091519      3.51265312   
    82       C          6.63972209     20.27051293      3.31409830   
    83       C          2.87398275     17.82256654      3.52673230   
    84       C          2.77576750     20.47598305      0.87333839   
    85       C          3.26216579     19.55480257      1.83094846   
    86       C          2.38758446     18.78019921      2.60555182   
    87       C          5.75108417     15.71432834      3.54171544   
    88       C          6.28057876     17.94918875      3.06130587   
    89       C          4.30904192     15.92018264      3.32670854   
    90       C          6.71183550     16.69846964      3.46519522   
    91       C          5.01340758     18.13065873      2.53217286   
    92       C          0.63634267     19.48142361      1.18140798   
    93       C          7.03814248     18.99990670      3.69154681   
    94       C          4.60395888     19.43911828      2.20733482   
    95       C          1.04579137     19.15658557      2.48986753   
    96       C          7.75778506     16.84791683      4.41482784   
    97       C          7.77276820     19.72501825      6.52306604   
    98       C          8.69394868     20.21141654      7.48069871   
    99       C          8.23819463     16.31842224      6.64968825   
   100       C          7.97279196     18.28995908      4.62068214   
   101       C          7.83430528     15.88716550      5.39896914   
   102       C          8.76732764     17.58559342      6.83115823   
   103       C         21.60902916     20.26334905      3.32126218   
   104       C         21.96817249     20.01055662      0.99996060   
   105       C         20.27595929     21.56993289      1.34070833   
   106       C         21.21060877     20.64079756      2.05065595   
   107       C          5.80163814      2.13709713     13.84116494   
   108       C          4.65977841      2.32848807     14.61359880   
   109       C          5.01892174      4.64981225     14.36080637   
   110       C          6.99045858      6.67881836     14.62620904   
   111       C          4.58766500      5.90053136     14.76469572   
   112       C          6.28609292      4.46834227     13.83167336   
   113       C          6.69554162      3.15988272     13.50683532   
   114       C          5.54841633      6.88467266     14.84121594   
   115       C          4.26135802      3.59909430     14.99104731   
   116       C         11.14761261      3.10808581     14.81215362   
   117       C          7.97823832      0.98997184      8.96384855   
   118       C         12.28947234      2.33565195     14.62076268   
   119       C          8.42551775      4.77643446     14.82623280   
   120       C          8.52373300      2.12301795     12.17281629   
   121       C          8.03733471      3.04419843     13.13044896   
   122       C          8.91191604      3.81880179     13.90505232   
   123       C         13.40753531      1.23492241     11.19816658   
   124       C         11.40083442      2.10803481     10.06457809   
   125       C         10.29956250      0.63082851      8.71105612   
   126       C         11.93032901      2.58844438     12.29943850   
   127       C         13.62254221      1.02906811     12.64020883   
   128       C          9.95879217      2.32304171     10.27043239   
   129       C         12.36158575      2.18455503     11.04871939   
   130       C         11.55028161      1.06208525      9.11494547   
   131       C         13.48405553      0.25078111     10.23741525   
   132       C         10.66315783      3.11757739     12.48090848   
   133       C          9.24884455      1.38839223      9.34129706   
   134       C         12.68789273      1.95818084     13.35015645   
   135       C         10.25370913      3.44241543     13.78936803   
   136       C         12.53442291      0.10133392      9.19146569   
   137       C         16.84791683      4.41482784      7.75778506   
   138       C         19.72501825      6.52306604      7.77276820   
   139       C         20.21141654      7.48069871      8.69394868   
   140       C         16.31842224      6.64968825      8.23819463   
   141       C         18.28995908      4.62068214      7.97279196   
   142       C         15.88716550      5.39896914      7.83430528   
   143       C         17.58559342      6.83115823      8.76732764   
   144       C          3.10808581     14.81215362     11.14761261   
   145       C          2.33565195     14.62076268     12.28947234   
   146       C          0.98997184      8.96384855      7.97823832   
   147       C          2.12301795     12.17281629      8.52373300   
   148       C          4.77643446     14.82623280      8.42551775   
   149       C          3.81880179     13.90505232      8.91191604   
   150       C          3.04419843     13.13044896      8.03733471   
   151       C          2.10803481     10.06457809     11.40083442   
   152       C          1.23492241     11.19816658     13.40753531   
   153       C          2.58844438     12.29943850     11.93032901   
   154       C          0.63082851      8.71105612     10.29956250   
   155       C          1.02906811     12.64020883     13.62254221   
   156       C          2.32304171     10.27043239      9.95879217   
   157       C          1.06208525      9.11494547     11.55028161   
   158       C          0.25078111     10.23741525     13.48405553   
   159       C          2.18455503     11.04871939     12.36158575   
   160       C          3.11757739     12.48090848     10.66315783   
   161       C          1.95818084     13.35015645     12.68789273   
   162       C          1.38839223      9.34129706      9.24884455   
   163       C          3.44241543     13.78936803     10.25370913   
   164       C          0.10133392      9.19146569     12.53442291   
   165       C         15.56085852      7.70040620      7.60795369   
   166       C         17.10113864      9.16240337      8.75783606   
   167       C         19.08634788     11.45138839     14.40758631   
   168       C         22.44711311      8.19141469      7.78684738   
   169       C         15.95927891      8.97101243      7.98540220   
   170       C         19.27773882     10.30952866     13.63515245   
   171       C         21.72568521     14.07526800     13.42251845   
   172       C         19.82323350      9.17648255     10.42618471   
   173       C         19.33683521      8.25530207      9.46855204   
   174       C         20.76805254     14.56166629     14.34369893   
   175       C         21.59906300     10.66867199     13.88794488   
   176       C         21.25829267      8.97645879     12.32856861   
   177       C         21.41759302     11.93584317     14.41707789   
   178       C         21.96265833      8.18192311     10.11809252   
   179       C         20.54834505      9.91110827     13.25770394   
   180       C         17.99504212      8.13961778      9.09216568   
   181       C         20.10913347     12.34529187     14.74191593   
   182       C         21.55320963      7.85708507      8.80963297   
   183       C          7.60795369     15.56085852      7.70040620   
   184       C          7.78684738     22.44711311      8.19141469   
   185       C          8.75783606     17.10113864      9.16240337   
   186       C         14.40758631     19.08634788     11.45138839   
   187       C          7.98540220     15.95927891      8.97101243   
   188       C         13.63515245     19.27773882     10.30952866   
   189       C         10.42618471     19.82323350      9.17648255   
   190       C         13.42251845     21.72568521     14.07526800   
   191       C          9.46855204     19.33683521      8.25530207   
   192       C         14.34369893     20.76805254     14.56166629   
   193       C         13.88794488     21.59906300     10.66867199   
   194       C         12.32856861     21.25829267      8.97645879   
   195       C         10.11809252     21.96265833      8.18192311   
   196       C         14.41707789     21.41759302     11.93584317   
   197       C         13.25770394     20.54834505      9.91110827   
   198       C          8.80963297     21.55320963      7.85708507   
   199       C          9.09216568     17.99504212      8.13961778   
   200       C         14.74191593     20.10913347     12.34529187   
   201       C         20.05733656     16.79736286     13.43659763   
   202       C         19.28490270     17.93922259     13.62798857   
   203       C         16.07593496     19.07226870     14.17348325   
   204       C         15.11830229     19.99344918     13.68708496   
   205       C         18.90745419     18.33764298     14.89859480   
   206       C         20.39166618     15.90345938     14.45938322   
   207       C          3.51265312      0.15188789     19.49091519   
   208       C          2.54166444      5.49786236     20.46190387   
   209       C          3.31409830      6.63972209     20.27051293   
   210       C          0.87333839      2.77576750     20.47598305   
   211       C          3.52673230      2.87398275     17.82256654   
   212       C          2.60555182      2.38758446     18.78019921   
   213       C          1.83094846      3.26216579     19.55480257   
   214       C          3.54171544      5.75108417     15.71432834   
   215       C          3.06130587      6.28057876     17.94918875   
   216       C          3.32670854      4.30904192     15.92018264   
   217       C          3.46519522      6.71183550     16.69846964   
   218       C          1.18140798      0.63634267     19.48142361   
   219       C          2.53217286      5.01340758     18.13065873   
   220       C          3.69154681      7.03814248     18.99990670   
   221       C          2.48986753      1.04579137     19.15658557   
   222       C          2.20733482      4.60395888     19.43911828   
   223       C         20.26334905      3.32126218     21.60902916   
   224       C         20.01055662      0.99996060     21.96817249   
   225       C         21.56993289      1.34070833     20.27595929   
   226       C         20.64079756      2.05065595     21.21060877   
   227       C          4.41482784      7.75778506     16.84791683   
   228       C          6.52306604      7.77276820     19.72501825   
   229       C          7.48069871      8.69394868     20.21141654   
   230       C          6.64968825      8.23819463     16.31842224   
   231       C          4.62068214      7.97279196     18.28995908   
   232       C          5.39896914      7.83430528     15.88716550   
   233       C          6.83115823      8.76732764     17.58559342   
   234       C          7.70040620      7.60795369     15.56085852   
   235       C          8.19141469      7.78684738     22.44711311   
   236       C         11.45138839     14.40758631     19.08634788   
   237       C          9.16240337      8.75783606     17.10113864   
   238       C         10.30952866     13.63515245     19.27773882   
   239       C          8.97101243      7.98540220     15.95927891   
   240       C          9.17648255     10.42618471     19.82323350   
   241       C         14.07526800     13.42251845     21.72568521   
   242       C         14.56166629     14.34369893     20.76805254   
   243       C          8.25530207      9.46855204     19.33683521   
   244       C         10.66867199     13.88794488     21.59906300   
   245       C          8.97645879     12.32856861     21.25829267   
   246       C          8.18192311     10.11809252     21.96265833   
   247       C         11.93584317     14.41707789     21.41759302   
   248       C          9.91110827     13.25770394     20.54834505   
   249       C          7.85708507      8.80963297     21.55320963   
   250       C         12.34529187     14.74191593     20.10913347   
   251       C          8.13961778      9.09216568     17.99504212   
   252       C         16.79736286     13.43659763     20.05733656   
   253       C         17.93922259     13.62798857     19.28490270   
   254       C         19.07226870     14.17348325     16.07593496   
   255       C         19.99344918     13.68708496     15.11830229   
   256       C         18.33764298     14.89859480     18.90745419   
   257       C         15.90345938     14.45938322     20.39166618   
   258       C          3.32126218     21.60902916     20.26334905   
   259       C          0.99996060     21.96817249     20.01055662   
   260       C          1.34070833     20.27595929     21.56993289   
   261       C          2.05065595     21.21060877     20.64079756   
   262       C         13.43659763     20.05733656     16.79736286   
   263       C         13.62798857     19.28490270     17.93922259   
   264       C         14.17348325     16.07593496     19.07226870   
   265       C         13.68708496     15.11830229     19.99344918   
   266       C         14.89859480     18.90745419     18.33764298   
   267       C         14.45938322     20.39166618     15.90345938   
   268       C         20.49096619     21.36407859     22.49766708   
   269       C         21.36407859     22.49766708     20.49096619   
   270       C         22.49766708     20.49096619     21.36407859   
   271       C         18.18417316     19.05728556     17.05058467   
   272       C         17.05058467     18.18417316     19.05728556   
   273       C         19.05728556     17.05058467     18.18417316   
   274       C         17.58007926     15.94931275     19.53769513   
   275       C         19.53769513     17.58007926     15.94931275   
   276       C         15.94931275     19.53769513     17.58007926   
   277       C         15.60854242     17.97831886     19.27229246   
   278       C         19.27229246     15.60854242     17.97831886   
   279       C         17.97831886     19.27229246     15.60854242   
   280       C         21.53691575     20.41444597     22.34821989   
   281       C         19.13380578     18.01133600     17.20003186   
   282       C         22.34821989     21.53691575     20.41444597   
   283       C         17.20003186     19.13380578     18.01133600   
   284       C         20.41444597     22.34821989     21.53691575   
   285       C         18.01133600     17.20003186     19.13380578   
   286       C         16.31290808     15.76784277     20.06682814   
   287       C         20.06682814     16.31290808     15.76784277   
   288       C         15.76784277     20.06682814     16.31290808   
   289       H         13.54880167      6.05637407      1.11898953   
   290       H          9.29603126      7.11045928      1.55991864   
   291       H         14.94578151      4.08983161      1.46070903   
   292       H         21.48001147      2.24930117      5.24312643   
   293       H         19.19855192      4.53076072      0.40662382   
   294       H         21.13829197      3.64628101      7.20966889   
   295       H         21.45736727      0.59733679      3.27161218   
   296       H         17.54658754      4.50811652      2.37813807   
   297       H         20.22086293      6.24708704      6.79138398   
   298       H          1.11898953     13.54880167      6.05637407   
   299       H          1.46070903     14.94578151      4.08983161   
   300       H          1.55991864      9.29603126      7.11045928   
   301       H         11.89683729      8.02788832      1.14163373   
   302       H         15.80761702      8.92136243      5.05241346   
   303       H         22.19237718      7.89905142      6.76873978   
   304       H         15.83026122     10.89287668      3.40044908   
   305       H         15.48854172     12.85941914      2.00346924   
   306       H          5.24312643     21.48001147      2.24930117   
   307       H          0.40662382     19.19855192      4.53076072   
   308       H          7.20966889     21.13829197      3.64628101   
   309       H          2.37813807     17.54658754      4.50811652   
   310       H          3.27161218     21.45736727      0.59733679   
   311       H          6.79138398     20.22086293      6.24708704   
   312       H         21.03908236     20.59553176      4.18904122   
   313       H          6.05637407      1.11898953     13.54880167   
   314       H          4.08983161      1.46070903     14.94578151   
   315       H          7.11045928      1.55991864      9.29603126   
   316       H          8.02788832      1.14163373     11.89683729   
   317       H          1.14163373     11.89683729      8.02788832   
   318       H         17.35587457     10.18051097      9.05019933   
   319       H         18.06824028     11.70612432     14.69994958   
   320       H         15.38933211      9.83879147      7.65321949   
   321       H         18.40995978      9.73958186     13.30296974   
   322       H         19.32738882     10.15786677     10.70216371   
   323       H         22.00166421     14.57111268     12.44113423   
   324       H          5.05241346     15.80761702      8.92136243   
   325       H          3.40044908     15.83026122     10.89287668   
   326       H          6.76873978     22.19237718      7.89905142   
   327       H          2.00346924     15.48854172     12.85941914   
   328       H         14.69994958     18.06824028     11.70612432   
   329       H          9.05019933     17.35587457     10.18051097   
   330       H         13.30296974     18.40995978      9.73958186   
   331       H          7.65321949     15.38933211      9.83879147   
   332       H         10.70216371     19.32738882     10.15786677   
   333       H         12.44113423     22.00166421     14.57111268   
   334       H         20.34969983     16.54262693     12.41849003   
   335       H         18.95271999     18.50916939     12.76020953   
   336       H         16.35191396     18.09088448     13.67763857   
   337       H          2.24930117      5.24312643     21.48001147   
   338       H          4.53076072      0.40662382     19.19855192   
   339       H          3.64628101      7.20966889     21.13829197   
   340       H          0.59733679      3.27161218     21.45736727   
   341       H          4.50811652      2.37813807     17.54658754   
   342       H          6.24708704      6.79138398     20.22086293   
   343       H          8.92136243      5.05241346     15.80761702   
   344       H          7.89905142      6.76873978     22.19237718   
   345       H         10.89287668      3.40044908     15.83026122   
   346       H         12.85941914      2.00346924     15.48854172   
   347       H         20.59553176      4.18904122     21.03908236   
   348       H         10.18051097      9.05019933     17.35587457   
   349       H         11.70612432     14.69994958     18.06824028   
   350       H          9.83879147      7.65321949     15.38933211   
   351       H          9.73958186     13.30296974     18.40995978   
   352       H         10.15786677     10.70216371     19.32738882   
   353       H         14.57111268     12.44113423     22.00166421   
   354       H         16.54262693     12.41849003     20.34969983   
   355       H         18.50916939     12.76020953     18.95271999   
   356       H         18.09088448     13.67763857     16.35191396   
   357       H          4.18904122     21.03908236     20.59553176   
   358       H         12.41849003     20.34969983     16.54262693   
   359       H         12.76020953     18.95271999     18.50916939   
   360       H         13.67763857     16.35191396     18.09088448   
   361      Tv         22.59900100      0.00000000      0.00000000   
   362      Tv          0.00000000     22.59900100      0.00000000   
   363      Tv          0.00000000      0.00000000     22.59900100   


                   THE SYSTEM IS A SOLID


                UNIT CELL TRANSLATION VECTORS

              X                Y              Z
    T1 =    22.5990010      0.0000000      0.0000000
    T2 =     0.0000000     22.5990010      0.0000000
    T3 =     0.0000000      0.0000000     22.5990010


          CARTESIAN COORDINATES 

    NO.       ATOM           X           Y           Z

     1         N         14.3988      7.2124      5.3234
     2         N         20.0486      0.3264      1.5627
     3         N         17.2756      3.0993      4.0871
     4         N          5.3234     14.3988      7.2124
     5         N         11.6259      9.7368      2.5504
     6         N          4.0871     17.2756      3.0993
     7         N          1.5627     20.0486      0.3264
     8         N          8.2002     18.5119      5.9761
     9         N          7.2124      5.3234     14.3988
    10         N          9.7368      2.5504     11.6259
    11         N         18.5119      5.9761      8.2002
    12         N          2.5504     11.6259      9.7368
    13         N         22.2726     12.8622     13.8499
    14         N         21.0363      8.7491     10.9731
    15         N         10.9731     21.0363      8.7491
    16         N         13.8499     22.2726     12.8622
    17         N          0.3264      1.5627     20.0486
    18         N          3.0993      4.0871     17.2756
    19         N          5.9761      8.2002     18.5119
    20         N          8.7491     10.9731     21.0363
    21         N         12.8622     13.8499     22.2726
    22         N         15.3866     16.6229     19.4997
    23         N         19.4997     15.3866     16.6229
    24         N         16.6229     19.4997     15.3866
    25         C         13.8412      5.8016      2.1371
    26         C         14.6136      4.6598      2.3285
    27         C         14.3608      5.0189      4.6498
    28         C         14.6262      6.9905      6.6788
    29         C         14.7647      4.5877      5.9005
    30         C         13.8317      6.2861      4.4683
    31         C         13.5068      6.6955      3.1599
    32         C         14.8412      5.5484      6.8847
    33         C         14.9910      4.2614      3.5991
    34         C         19.4909      3.5127      0.1519
    35         C         20.4619      2.5417      5.4979
    36         C         20.2705      3.3141      6.6397
    37         C         20.4760      0.8733      2.7758
    38         C         17.8226      3.5267      2.8740
    39         C         18.7802      2.6056      2.3876
    40         C         19.5548      1.8309      3.2622
    41         C         15.7143      3.5417      5.7511
    42         C         17.9492      3.0613      6.2806
    43         C         15.9202      3.3267      4.3090
    44         C         16.6985      3.4652      6.7118
    45         C         19.4814      1.1814      0.6363
    46         C         18.1307      2.5322      5.0134
    47         C         18.9999      3.6915      7.0381
    48         C         19.1566      2.4899      1.0458
    49         C         19.4391      2.2073      4.6040
    50         C          2.1371     13.8412      5.8016
    51         C          2.3285     14.6136      4.6598
    52         C          4.6498     14.3608      5.0189
    53         C          6.6788     14.6262      6.9905
    54         C          5.9005     14.7647      4.5877
    55         C          4.4683     13.8317      6.2861
    56         C          3.1599     13.5068      6.6955
    57         C          6.8847     14.8412      5.5484
    58         C          3.5991     14.9910      4.2614
    59         C         14.8122     11.1476      3.1081
    60         C         14.6208     12.2895      2.3357
    61         C          8.9638      7.9782      0.9900
    62         C         12.1728      8.5237      2.1230
    63         C         14.8262      8.4255      4.7764
    64         C         13.9051      8.9119      3.8188
    65         C         13.1304      8.0373      3.0442
    66         C         11.1982     13.4075      1.2349
    67         C         10.0646     11.4008      2.1080
    68         C         12.2994     11.9303      2.5884
    69         C          8.7111     10.2996      0.6308
    70         C         10.2704      9.9588      2.3230
    71         C         12.6402     13.6225      1.0291
    72         C         10.2374     13.4841      0.2508
    73         C         11.0487     12.3616      2.1846
    74         C          9.1149     11.5503      1.0621
    75         C         12.4809     10.6632      3.1176
    76         C         13.3502     12.6879      1.9582
    77         C          9.3413      9.2488      1.3884
    78         C         13.7894     10.2537      3.4424
    79         C          9.1915     12.5344      0.1013
    80         C          5.4979     20.4619      2.5417
    81         C          0.1519     19.4909      3.5127
    82         C          6.6397     20.2705      3.3141
    83         C          2.8740     17.8226      3.5267
    84         C          2.7758     20.4760      0.8733
    85         C          3.2622     19.5548      1.8309
    86         C          2.3876     18.7802      2.6056
    87         C          5.7511     15.7143      3.5417
    88         C          6.2806     17.9492      3.0613
    89         C          4.3090     15.9202      3.3267
    90         C          6.7118     16.6985      3.4652
    91         C          5.0134     18.1307      2.5322
    92         C          0.6363     19.4814      1.1814
    93         C          7.0381     18.9999      3.6915
    94         C          4.6040     19.4391      2.2073
    95         C          1.0458     19.1566      2.4899
    96         C          7.7578     16.8479      4.4148
    97         C          7.7728     19.7250      6.5231
    98         C          8.6939     20.2114      7.4807
    99         C          8.2382     16.3184      6.6497
   100         C          7.9728     18.2900      4.6207
   101         C          7.8343     15.8872      5.3990
   102         C          8.7673     17.5856      6.8312
   103         C         21.6090     20.2633      3.3213
   104         C         21.9682     20.0106      1.0000
   105         C         20.2760     21.5699      1.3407
   106         C         21.2106     20.6408      2.0507
   107         C          5.8016      2.1371     13.8412
   108         C          4.6598      2.3285     14.6136
   109         C          5.0189      4.6498     14.3608
   110         C          6.9905      6.6788     14.6262
   111         C          4.5877      5.9005     14.7647
   112         C          6.2861      4.4683     13.8317
   113         C          6.6955      3.1599     13.5068
   114         C          5.5484      6.8847     14.8412
   115         C          4.2614      3.5991     14.9910
   116         C         11.1476      3.1081     14.8122
   117         C          7.9782      0.9900      8.9638
   118         C         12.2895      2.3357     14.6208
   119         C          8.4255      4.7764     14.8262
   120         C          8.5237      2.1230     12.1728
   121         C          8.0373      3.0442     13.1304
   122         C          8.9119      3.8188     13.9051
   123         C         13.4075      1.2349     11.1982
   124         C         11.4008      2.1080     10.0646
   125         C         10.2996      0.6308      8.7111
   126         C         11.9303      2.5884     12.2994
   127         C         13.6225      1.0291     12.6402
   128         C          9.9588      2.3230     10.2704
   129         C         12.3616      2.1846     11.0487
   130         C         11.5503      1.0621      9.1149
   131         C         13.4841      0.2508     10.2374
   132         C         10.6632      3.1176     12.4809
   133         C          9.2488      1.3884      9.3413
   134         C         12.6879      1.9582     13.3502
   135         C         10.2537      3.4424     13.7894
   136         C         12.5344      0.1013      9.1915
   137         C         16.8479      4.4148      7.7578
   138         C         19.7250      6.5231      7.7728
   139         C         20.2114      7.4807      8.6939
   140         C         16.3184      6.6497      8.2382
   141         C         18.2900      4.6207      7.9728
   142         C         15.8872      5.3990      7.8343
   143         C         17.5856      6.8312      8.7673
   144         C          3.1081     14.8122     11.1476
   145         C          2.3357     14.6208     12.2895
   146         C          0.9900      8.9638      7.9782
   147         C          2.1230     12.1728      8.5237
   148         C          4.7764     14.8262      8.4255
   149         C          3.8188     13.9051      8.9119
   150         C          3.0442     13.1304      8.0373
   151         C          2.1080     10.0646     11.4008
   152         C          1.2349     11.1982     13.4075
   153         C          2.5884     12.2994     11.9303
   154         C          0.6308      8.7111     10.2996
   155         C          1.0291     12.6402     13.6225
   156         C          2.3230     10.2704      9.9588
   157         C          1.0621      9.1149     11.5503
   158         C          0.2508     10.2374     13.4841
   159         C          2.1846     11.0487     12.3616
   160         C          3.1176     12.4809     10.6632
   161         C          1.9582     13.3502     12.6879
   162         C          1.3884      9.3413      9.2488
   163         C          3.4424     13.7894     10.2537
   164         C          0.1013      9.1915     12.5344
   165         C         15.5609      7.7004      7.6080
   166         C         17.1011      9.1624      8.7578
   167         C         19.0863     11.4514     14.4076
   168         C         22.4471      8.1914      7.7868
   169         C         15.9593      8.9710      7.9854
   170         C         19.2777     10.3095     13.6352
   171         C         21.7257     14.0753     13.4225
   172         C         19.8232      9.1765     10.4262
   173         C         19.3368      8.2553      9.4686
   174         C         20.7681     14.5617     14.3437
   175         C         21.5991     10.6687     13.8879
   176         C         21.2583      8.9765     12.3286
   177         C         21.4176     11.9358     14.4171
   178         C         21.9627      8.1819     10.1181
   179         C         20.5483      9.9111     13.2577
   180         C         17.9950      8.1396      9.0922
   181         C         20.1091     12.3453     14.7419
   182         C         21.5532      7.8571      8.8096
   183         C          7.6080     15.5609      7.7004
   184         C          7.7868     22.4471      8.1914
   185         C          8.7578     17.1011      9.1624
   186         C         14.4076     19.0863     11.4514
   187         C          7.9854     15.9593      8.9710
   188         C         13.6352     19.2777     10.3095
   189         C         10.4262     19.8232      9.1765
   190         C         13.4225     21.7257     14.0753
   191         C          9.4686     19.3368      8.2553
   192         C         14.3437     20.7681     14.5617
   193         C         13.8879     21.5991     10.6687
   194         C         12.3286     21.2583      8.9765
   195         C         10.1181     21.9627      8.1819
   196         C         14.4171     21.4176     11.9358
   197         C         13.2577     20.5483      9.9111
   198         C          8.8096     21.5532      7.8571
   199         C          9.0922     17.9950      8.1396
   200         C         14.7419     20.1091     12.3453
   201         C         20.0573     16.7974     13.4366
   202         C         19.2849     17.9392     13.6280
   203         C         16.0759     19.0723     14.1735
   204         C         15.1183     19.9934     13.6871
   205         C         18.9075     18.3376     14.8986
   206         C         20.3917     15.9035     14.4594
   207         C          3.5127      0.1519     19.4909
   208         C          2.5417      5.4979     20.4619
   209         C          3.3141      6.6397     20.2705
   210         C          0.8733      2.7758     20.4760
   211         C          3.5267      2.8740     17.8226
   212         C          2.6056      2.3876     18.7802
   213         C          1.8309      3.2622     19.5548
   214         C          3.5417      5.7511     15.7143
   215         C          3.0613      6.2806     17.9492
   216         C          3.3267      4.3090     15.9202
   217         C          3.4652      6.7118     16.6985
   218         C          1.1814      0.6363     19.4814
   219         C          2.5322      5.0134     18.1307
   220         C          3.6915      7.0381     18.9999
   221         C          2.4899      1.0458     19.1566
   222         C          2.2073      4.6040     19.4391
   223         C         20.2633      3.3213     21.6090
   224         C         20.0106      1.0000     21.9682
   225         C         21.5699      1.3407     20.2760
   226         C         20.6408      2.0507     21.2106
   227         C          4.4148      7.7578     16.8479
   228         C          6.5231      7.7728     19.7250
   229         C          7.4807      8.6939     20.2114
   230         C          6.6497      8.2382     16.3184
   231         C          4.6207      7.9728     18.2900
   232         C          5.3990      7.8343     15.8872
   233         C          6.8312      8.7673     17.5856
   234         C          7.7004      7.6080     15.5609
   235         C          8.1914      7.7868     22.4471
   236         C         11.4514     14.4076     19.0863
   237         C          9.1624      8.7578     17.1011
   238         C         10.3095     13.6352     19.2777
   239         C          8.9710      7.9854     15.9593
   240         C          9.1765     10.4262     19.8232
   241         C         14.0753     13.4225     21.7257
   242         C         14.5617     14.3437     20.7681
   243         C          8.2553      9.4686     19.3368
   244         C         10.6687     13.8879     21.5991
   245         C          8.9765     12.3286     21.2583
   246         C          8.1819     10.1181     21.9627
   247         C         11.9358     14.4171     21.4176
   248         C          9.9111     13.2577     20.5483
   249         C          7.8571      8.8096     21.5532
   250         C         12.3453     14.7419     20.1091
   251         C          8.1396      9.0922     17.9950
   252         C         16.7974     13.4366     20.0573
   253         C         17.9392     13.6280     19.2849
   254         C         19.0723     14.1735     16.0759
   255         C         19.9934     13.6871     15.1183
   256         C         18.3376     14.8986     18.9075
   257         C         15.9035     14.4594     20.3917
   258         C          3.3213     21.6090     20.2633
   259         C          1.0000     21.9682     20.0106
   260         C          1.3407     20.2760     21.5699
   261         C          2.0507     21.2106     20.6408
   262         C         13.4366     20.0573     16.7974
   263         C         13.6280     19.2849     17.9392
   264         C         14.1735     16.0759     19.0723
   265         C         13.6871     15.1183     19.9934
   266         C         14.8986     18.9075     18.3376
   267         C         14.4594     20.3917     15.9035
   268         C         20.4910     21.3641     22.4977
   269         C         21.3641     22.4977     20.4910
   270         C         22.4977     20.4910     21.3641
   271         C         18.1842     19.0573     17.0506
   272         C         17.0506     18.1842     19.0573
   273         C         19.0573     17.0506     18.1842
   274         C         17.5801     15.9493     19.5377
   275         C         19.5377     17.5801     15.9493
   276         C         15.9493     19.5377     17.5801
   277         C         15.6085     17.9783     19.2723
   278         C         19.2723     15.6085     17.9783
   279         C         17.9783     19.2723     15.6085
   280         C         21.5369     20.4144     22.3482
   281         C         19.1338     18.0113     17.2000
   282         C         22.3482     21.5369     20.4144
   283         C         17.2000     19.1338     18.0113
   284         C         20.4144     22.3482     21.5369
   285         C         18.0113     17.2000     19.1338
   286         C         16.3129     15.7678     20.0668
   287         C         20.0668     16.3129     15.7678
   288         C         15.7678     20.0668     16.3129
   289         H         13.5488      6.0564      1.1190
   290         H          9.2960      7.1105      1.5599
   291         H         14.9458      4.0898      1.4607
   292         H         21.4800      2.2493      5.2431
   293         H         19.1986      4.5308      0.4066
   294         H         21.1383      3.6463      7.2097
   295         H         21.4574      0.5973      3.2716
   296         H         17.5466      4.5081      2.3781
   297         H         20.2209      6.2471      6.7914
   298         H          1.1190     13.5488      6.0564
   299         H          1.4607     14.9458      4.0898
   300         H          1.5599      9.2960      7.1105
   301         H         11.8968      8.0279      1.1416
   302         H         15.8076      8.9214      5.0524
   303         H         22.1924      7.8991      6.7687
   304         H         15.8303     10.8929      3.4004
   305         H         15.4885     12.8594      2.0035
   306         H          5.2431     21.4800      2.2493
   307         H          0.4066     19.1986      4.5308
   308         H          7.2097     21.1383      3.6463
   309         H          2.3781     17.5466      4.5081
   310         H          3.2716     21.4574      0.5973
   311         H          6.7914     20.2209      6.2471
   312         H         21.0391     20.5955      4.1890
   313         H          6.0564      1.1190     13.5488
   314         H          4.0898      1.4607     14.9458
   315         H          7.1105      1.5599      9.2960
   316         H          8.0279      1.1416     11.8968
   317         H          1.1416     11.8968      8.0279
   318         H         17.3559     10.1805      9.0502
   319         H         18.0682     11.7061     14.6999
   320         H         15.3893      9.8388      7.6532
   321         H         18.4100      9.7396     13.3030
   322         H         19.3274     10.1579     10.7022
   323         H         22.0017     14.5711     12.4411
   324         H          5.0524     15.8076      8.9214
   325         H          3.4004     15.8303     10.8929
   326         H          6.7687     22.1924      7.8991
   327         H          2.0035     15.4885     12.8594
   328         H         14.6999     18.0682     11.7061
   329         H          9.0502     17.3559     10.1805
   330         H         13.3030     18.4100      9.7396
   331         H          7.6532     15.3893      9.8388
   332         H         10.7022     19.3274     10.1579
   333         H         12.4411     22.0017     14.5711
   334         H         20.3497     16.5426     12.4185
   335         H         18.9527     18.5092     12.7602
   336         H         16.3519     18.0909     13.6776
   337         H          2.2493      5.2431     21.4800
   338         H          4.5308      0.4066     19.1986
   339         H          3.6463      7.2097     21.1383
   340         H          0.5973      3.2716     21.4574
   341         H          4.5081      2.3781     17.5466
   342         H          6.2471      6.7914     20.2209
   343         H          8.9214      5.0524     15.8076
   344         H          7.8991      6.7687     22.1924
   345         H         10.8929      3.4004     15.8303
   346         H         12.8594      2.0035     15.4885
   347         H         20.5955      4.1890     21.0391
   348         H         10.1805      9.0502     17.3559
   349         H         11.7061     14.6999     18.0682
   350         H          9.8388      7.6532     15.3893
   351         H          9.7396     13.3030     18.4100
   352         H         10.1579     10.7022     19.3274
   353         H         14.5711     12.4411     22.0017
   354         H         16.5426     12.4185     20.3497
   355         H         18.5092     12.7602     18.9527
   356         H         18.0909     13.6776     16.3519
   357         H          4.1890     21.0391     20.5955
   358         H         12.4185     20.3497     16.5426
   359         H         12.7602     18.9527     18.5092
   360         H         13.6776     16.3519     18.0909

 General Reference for PM7:
 "Optimization of Parameters for Semiempirical Methods VI: More Modifications to the 
 NDDO Approximations and Re-optimization of Parameters", J. J. P. Stewart, J. Mol. Mod., 1:32, 19 (2013)
 https://link.springer.com/article/10.1007/s00894-012-1667-x

           Empirical Formula: C264 H72 N24  =   360 atoms



      RHF CALCULATION, NO. OF DOUBLY OCCUPIED LEVELS = 624


 -------------------------------------------------------------------------------
 PM7 CHARGE=0 NOOPT




     NO PARAMETERS MARKED FOR OPTIMIZATION, SO 1SCF WAS USED  
     SCF FIELD WAS ACHIEVED                                   


                              PM7 CALCULATION
                                                       MOPAC v22.1.0 Linux
                                                       Thu Feb  1 10:55:21 2024




          FINAL HEAT OF FORMATION =       3756.38045 KCAL/MOL =   15716.69580 KJ/MOL
          H.o.F. per unit cell    =        156.51585 KCAL, for 24 unit cells, unit cell = C11 H3 N1



          IONIZATION POTENTIAL    =          7.165366 EV
          HOMO LUMO ENERGIES (EV) =         -7.165 -2.521
          NO. OF FILLED LEVELS    =        624
          MOLECULAR WEIGHT        =       3579.6336

                   THE SYSTEM IS A SOLID


                UNIT CELL TRANSLATION VECTORS

              X                Y              Z
    T1 =    22.5990010      0.0000000      0.0000000
    T2 =     0.0000000     22.5990010      0.0000000
    T3 =     0.0000000      0.0000000     22.5990010

          VOLUME OF UNIT CELL     =      11541.645 CUBIC ANGSTROMS

          DENSITY                 =          0.515 GRAMS/CC
                              A   =         22.599 ANGSTROMS
                              B   =         22.599 ANGSTROMS
                              C   =         22.599 ANGSTROMS
                            ALPHA =         90.000 DEGREES
                            BETA  =         90.000 DEGREES
                            GAMMA =         90.000 DEGREES



          SCF CALCULATIONS        =          1

          WALL-CLOCK TIME         =          3 MINUTES AND 57.027 SECONDS
          COMPUTATION TIME        =          3 MINUTES AND 57.011 SECONDS




   ATOM   CHEMICAL          X               Y               Z
  NUMBER   SYMBOL      (ANGSTROMS)     (ANGSTROMS)     (ANGSTROMS)

     1       N         14.39884049      7.21240337      5.32337548   
     2       N         20.04859074      0.32637477      1.56265312   
     3       N         17.27562552      3.09933999      4.08709713   
     4       N          5.32337548     14.39884049      7.21240337   
     5       N         11.62587527      9.73684738      2.55041026   
     6       N          4.08709713     17.27562552      3.09933999   
     7       N          1.56265312     20.04859074      0.32637477   
     8       N          8.20016051     18.51190387      5.97612502   
     9       N          7.21240337      5.32337548     14.39884049   
    10       N          9.73684738      2.55041026     11.62587527   
    11       N         18.51190387      5.97612502      8.20016051   
    12       N          2.55041026     11.62587527      9.73684738   
    13       N         22.27262623     12.86215362     13.84991076   
    14       N         21.03634788      8.74909024     10.97312573   
    15       N         10.97312573     21.03634788      8.74909024   
    16       N         13.84991076     22.27262623     12.86215362   
    17       N          0.32637477      1.56265312     20.04859074   
    18       N          3.09933999      4.08709713     17.27562552   
    19       N          5.97612502      8.20016051     18.51190387   
    20       N          8.74909024     10.97312573     21.03634788   
    21       N         12.86215362     13.84991076     22.27262623   
    22       N         15.38659763     16.62287598     19.49966101   
    23       N         19.49966101     15.38659763     16.62287598   
    24       N         16.62287598     19.49966101     15.38659763   
    25       C         13.84116494      5.80163814      2.13709713   
    26       C         14.61359880      4.65977841      2.32848807   
    27       C         14.36080637      5.01892174      4.64981225   
    28       C         14.62620904      6.99045858      6.67881836   
    29       C         14.76469572      4.58766500      5.90053136   
    30       C         13.83167336      6.28609292      4.46834227   
    31       C         13.50683532      6.69554162      3.15988272   
    32       C         14.84121594      5.54841633      6.88467266   
    33       C         14.99104731      4.26135802      3.59909430   
    34       C         19.49091519      3.51265312      0.15188789   
    35       C         20.46190387      2.54166444      5.49786236   
    36       C         20.27051293      3.31409830      6.63972209   
    37       C         20.47598305      0.87333839      2.77576750   
    38       C         17.82256654      3.52673230      2.87398275   
    39       C         18.78019921      2.60555182      2.38758446   
    40       C         19.55480257      1.83094846      3.26216579   
    41       C         15.71432834      3.54171544      5.75108417   
    42       C         17.94918875      3.06130587      6.28057876   
    43       C         15.92018264      3.32670854      4.30904192   
    44       C         16.69846964      3.46519522      6.71183550   
    45       C         19.48142361      1.18140798      0.63634267   
    46       C         18.13065873      2.53217286      5.01340758   
    47       C         18.99990670      3.69154681      7.03814248   
    48       C         19.15658557      2.48986753      1.04579137   
    49       C         19.43911828      2.20733482      4.60395888   
    50       C          2.13709713     13.84116494      5.80163814   
    51       C          2.32848807     14.61359880      4.65977841   
    52       C          4.64981225     14.36080637      5.01892174   
    53       C          6.67881836     14.62620904      6.99045858   
    54       C          5.90053136     14.76469572      4.58766500   
    55       C          4.46834227     13.83167336      6.28609292   
    56       C          3.15988272     13.50683532      6.69554162   
    57       C          6.88467266     14.84121594      5.54841633   
    58       C          3.59909430     14.99104731      4.26135802   
    59       C         14.81215362     11.14761261      3.10808581   
    60       C         14.62076268     12.28947234      2.33565195   
    61       C          8.96384855      7.97823832      0.98997184   
    62       C         12.17281629      8.52373300      2.12301795   
    63       C         14.82623280      8.42551775      4.77643446   
    64       C         13.90505232      8.91191604      3.81880179   
    65       C         13.13044896      8.03733471      3.04419843   
    66       C         11.19816658     13.40753531      1.23492241   
    67       C         10.06457809     11.40083442      2.10803481   
    68       C         12.29943850     11.93032901      2.58844438   
    69       C          8.71105612     10.29956250      0.63082851   
    70       C         10.27043239      9.95879217      2.32304171   
    71       C         12.64020883     13.62254221      1.02906811   
    72       C         10.23741525     13.48405553      0.25078111   
    73       C         11.04871939     12.36158575      2.18455503   
    74       C          9.11494547     11.55028161      1.06208525   
    75       C         12.48090848     10.66315783      3.11757739   
    76       C         13.35015645     12.68789273      1.95818084   
    77       C          9.34129706      9.24884455      1.38839223   
    78       C         13.78936803     10.25370913      3.44241543   
    79       C          9.19146569     12.53442291      0.10133392   
    80       C          5.49786236     20.46190387      2.54166444   
    81       C          0.15188789     19.49091519      3.51265312   
    82       C          6.63972209     20.27051293      3.31409830   
    83       C          2.87398275     17.82256654      3.52673230   
    84       C          2.77576750     20.47598305      0.87333839   
    85       C          3.26216579     19.55480257      1.83094846   
    86       C          2.38758446     18.78019921      2.60555182   
    87       C          5.75108417     15.71432834      3.54171544   
    88       C          6.28057876     17.94918875      3.06130587   
    89       C          4.30904192     15.92018264      3.32670854   
    90       C          6.71183550     16.69846964      3.46519522   
    91       C          5.01340758     18.13065873      2.53217286   
    92       C          0.63634267     19.48142361      1.18140798   
    93       C          7.03814248     18.99990670      3.69154681   
    94       C          4.60395888     19.43911828      2.20733482   
    95       C          1.04579137     19.15658557      2.48986753   
    96       C          7.75778506     16.84791683      4.41482784   
    97       C          7.77276820     19.72501825      6.52306604   
    98       C          8.69394868     20.21141654      7.48069871   
    99       C          8.23819463     16.31842224      6.64968825   
   100       C          7.97279196     18.28995908      4.62068214   
   101       C          7.83430528     15.88716550      5.39896914   
   102       C          8.76732764     17.58559342      6.83115823   
   103       C         21.60902916     20.26334905      3.32126218   
   104       C         21.96817249     20.01055662      0.99996060   
   105       C         20.27595929     21.56993289      1.34070833   
   106       C         21.21060877     20.64079756      2.05065595   
   107       C          5.80163814      2.13709713     13.84116494   
   108       C          4.65977841      2.32848807     14.61359880   
   109       C          5.01892174      4.64981225     14.36080637   
   110       C          6.99045858      6.67881836     14.62620904   
   111       C          4.58766500      5.90053136     14.76469572   
   112       C          6.28609292      4.46834227     13.83167336   
   113       C          6.69554162      3.15988272     13.50683532   
   114       C          5.54841633      6.88467266     14.84121594   
   115       C          4.26135802      3.59909430     14.99104731   
   116       C         11.14761261      3.10808581     14.81215362   
   117       C          7.97823832      0.98997184      8.96384855   
   118       C         12.28947234      2.33565195     14.62076268   
   119       C          8.42551775      4.77643446     14.82623280   
   120       C          8.52373300      2.12301795     12.17281629   
   121       C          8.03733471      3.04419843     13.13044896   
   122       C          8.91191604      3.81880179     13.90505232   
   123       C         13.40753531      1.23492241     11.19816658   
   124       C         11.40083442      2.10803481     10.06457809   
   125       C         10.29956250      0.63082851      8.71105612   
   126       C         11.93032901      2.58844438     12.29943850   
   127       C         13.62254221      1.02906811     12.64020883   
   128       C          9.95879217      2.32304171     10.27043239   
   129       C         12.36158575      2.18455503     11.04871939   
   130       C         11.55028161      1.06208525      9.11494547   
   131       C         13.48405553      0.25078111     10.23741525   
   132       C         10.66315783      3.11757739     12.48090848   
   133       C          9.24884455      1.38839223      9.34129706   
   134       C         12.68789273      1.95818084     13.35015645   
   135       C         10.25370913      3.44241543     13.78936803   
   136       C         12.53442291      0.10133392      9.19146569   
   137       C         16.84791683      4.41482784      7.75778506   
   138       C         19.72501825      6.52306604      7.77276820   
   139       C         20.21141654      7.48069871      8.69394868   
   140       C         16.31842224      6.64968825      8.23819463   
   141       C         18.28995908      4.62068214      7.97279196   
   142       C         15.88716550      5.39896914      7.83430528   
   143       C         17.58559342      6.83115823      8.76732764   
   144       C          3.10808581     14.81215362     11.14761261   
   145       C          2.33565195     14.62076268     12.28947234   
   146       C          0.98997184      8.96384855      7.97823832   
   147       C          2.12301795     12.17281629      8.52373300   
   148       C          4.77643446     14.82623280      8.42551775   
   149       C          3.81880179     13.90505232      8.91191604   
   150       C          3.04419843     13.13044896      8.03733471   
   151       C          2.10803481     10.06457809     11.40083442   
   152       C          1.23492241     11.19816658     13.40753531   
   153       C          2.58844438     12.29943850     11.93032901   
   154       C          0.63082851      8.71105612     10.29956250   
   155       C          1.02906811     12.64020883     13.62254221   
   156       C          2.32304171     10.27043239      9.95879217   
   157       C          1.06208525      9.11494547     11.55028161   
   158       C          0.25078111     10.23741525     13.48405553   
   159       C          2.18455503     11.04871939     12.36158575   
   160       C          3.11757739     12.48090848     10.66315783   
   161       C          1.95818084     13.35015645     12.68789273   
   162       C          1.38839223      9.34129706      9.24884455   
   163       C          3.44241543     13.78936803     10.25370913   
   164       C          0.10133392      9.19146569     12.53442291   
   165       C         15.56085852      7.70040620      7.60795369   
   166       C         17.10113864      9.16240337      8.75783606   
   167       C         19.08634788     11.45138839     14.40758631   
   168       C         22.44711311      8.19141469      7.78684738   
   169       C         15.95927891      8.97101243      7.98540220   
   170       C         19.27773882     10.30952866     13.63515245   
   171       C         21.72568521     14.07526800     13.42251845   
   172       C         19.82323350      9.17648255     10.42618471   
   173       C         19.33683521      8.25530207      9.46855204   
   174       C         20.76805254     14.56166629     14.34369893   
   175       C         21.59906300     10.66867199     13.88794488   
   176       C         21.25829267      8.97645879     12.32856861   
   177       C         21.41759302     11.93584317     14.41707789   
   178       C         21.96265833      8.18192311     10.11809252   
   179       C         20.54834505      9.91110827     13.25770394   
   180       C         17.99504212      8.13961778      9.09216568   
   181       C         20.10913347     12.34529187     14.74191593   
   182       C         21.55320963      7.85708507      8.80963297   
   183       C          7.60795369     15.56085852      7.70040620   
   184       C          7.78684738     22.44711311      8.19141469   
   185       C          8.75783606     17.10113864      9.16240337   
   186       C         14.40758631     19.08634788     11.45138839   
   187       C          7.98540220     15.95927891      8.97101243   
   188       C         13.63515245     19.27773882     10.30952866   
   189       C         10.42618471     19.82323350      9.17648255   
   190       C         13.42251845     21.72568521     14.07526800   
   191       C          9.46855204     19.33683521      8.25530207   
   192       C         14.34369893     20.76805254     14.56166629   
   193       C         13.88794488     21.59906300     10.66867199   
   194       C         12.32856861     21.25829267      8.97645879   
   195       C         10.11809252     21.96265833      8.18192311   
   196       C         14.41707789     21.41759302     11.93584317   
   197       C         13.25770394     20.54834505      9.91110827   
   198       C          8.80963297     21.55320963      7.85708507   
   199       C          9.09216568     17.99504212      8.13961778   
   200       C         14.74191593     20.10913347     12.34529187   
   201       C         20.05733656     16.79736286     13.43659763   
   202       C         19.28490270     17.93922259     13.62798857   
   203       C         16.07593496     19.07226870     14.17348325   
   204       C         15.11830229     19.99344918     13.68708496   
   205       C         18.90745419     18.33764298     14.89859480   
   206       C         20.39166618     15.90345938     14.45938322   
   207       C          3.51265312      0.15188789     19.49091519   
   208       C          2.54166444      5.49786236     20.46190387   
   209       C          3.31409830      6.63972209     20.27051293   
   210       C          0.87333839      2.77576750     20.47598305   
   211       C          3.52673230      2.87398275     17.82256654   
   212       C          2.60555182      2.38758446     18.78019921   
   213       C          1.83094846      3.26216579     19.55480257   
   214       C          3.54171544      5.75108417     15.71432834   
   215       C          3.06130587      6.28057876     17.94918875   
   216       C          3.32670854      4.30904192     15.92018264   
   217       C          3.46519522      6.71183550     16.69846964   
   218       C          1.18140798      0.63634267     19.48142361   
   219       C          2.53217286      5.01340758     18.13065873   
   220       C          3.69154681      7.03814248     18.99990670   
   221       C          2.48986753      1.04579137     19.15658557   
   222       C          2.20733482      4.60395888     19.43911828   
   223       C         20.26334905      3.32126218     21.60902916   
   224       C         20.01055662      0.99996060     21.96817249   
   225       C         21.56993289      1.34070833     20.27595929   
   226       C         20.64079756      2.05065595     21.21060877   
   227       C          4.41482784      7.75778506     16.84791683   
   228       C          6.52306604      7.77276820     19.72501825   
   229       C          7.48069871      8.69394868     20.21141654   
   230       C          6.64968825      8.23819463     16.31842224   
   231       C          4.62068214      7.97279196     18.28995908   
   232       C          5.39896914      7.83430528     15.88716550   
   233       C          6.83115823      8.76732764     17.58559342   
   234       C          7.70040620      7.60795369     15.56085852   
   235       C          8.19141469      7.78684738     22.44711311   
   236       C         11.45138839     14.40758631     19.08634788   
   237       C          9.16240337      8.75783606     17.10113864   
   238       C         10.30952866     13.63515245     19.27773882   
   239       C          8.97101243      7.98540220     15.95927891   
   240       C          9.17648255     10.42618471     19.82323350   
   241       C         14.07526800     13.42251845     21.72568521   
   242       C         14.56166629     14.34369893     20.76805254   
   243       C          8.25530207      9.46855204     19.33683521   
   244       C         10.66867199     13.88794488     21.59906300   
   245       C          8.97645879     12.32856861     21.25829267   
   246       C          8.18192311     10.11809252     21.96265833   
   247       C         11.93584317     14.41707789     21.41759302   
   248       C          9.91110827     13.25770394     20.54834505   
   249       C          7.85708507      8.80963297     21.55320963   
   250       C         12.34529187     14.74191593     20.10913347   
   251       C          8.13961778      9.09216568     17.99504212   
   252       C         16.79736286     13.43659763     20.05733656   
   253       C         17.93922259     13.62798857     19.28490270   
   254       C         19.07226870     14.17348325     16.07593496   
   255       C         19.99344918     13.68708496     15.11830229   
   256       C         18.33764298     14.89859480     18.90745419   
   257       C         15.90345938     14.45938322     20.39166618   
   258       C          3.32126218     21.60902916     20.26334905   
   259       C          0.99996060     21.96817249     20.01055662   
   260       C          1.34070833     20.27595929     21.56993289   
   261       C          2.05065595     21.21060877     20.64079756   
   262       C         13.43659763     20.05733656     16.79736286   
   263       C         13.62798857     19.28490270     17.93922259   
   264       C         14.17348325     16.07593496     19.07226870   
   265       C         13.68708496     15.11830229     19.99344918   
   266       C         14.89859480     18.90745419     18.33764298   
   267       C         14.45938322     20.39166618     15.90345938   
   268       C         20.49096619     21.36407859     22.49766708   
   269       C         21.36407859     22.49766708     20.49096619   
   270       C         22.49766708     20.49096619     21.36407859   
   271       C         18.18417316     19.05728556     17.05058467   
   272       C         17.05058467     18.18417316     19.05728556   
   273       C         19.05728556     17.05058467     18.18417316   
   274       C         17.58007926     15.94931275     19.53769513   
   275       C         19.53769513     17.58007926     15.94931275   
   276       C         15.94931275     19.53769513     17.58007926   
   277       C         15.60854242     17.97831886     19.27229246   
   278       C         19.27229246     15.60854242     17.97831886   
   279       C         17.97831886     19.27229246     15.60854242   
   280       C         21.53691575     20.41444597     22.34821989   
   281       C         19.13380578     18.01133600     17.20003186   
   282       C         22.34821989     21.53691575     20.41444597   
   283       C         17.20003186     19.13380578     18.01133600   
   284       C         20.41444597     22.34821989     21.53691575   
   285       C         18.01133600     17.20003186     19.13380578   
   286       C         16.31290808     15.76784277     20.06682814   
   287       C         20.06682814     16.31290808     15.76784277   
   288       C         15.76784277     20.06682814     16.31290808   
   289       H         13.54880167      6.05637407      1.11898953   
   290       H          9.29603126      7.11045928      1.55991864   
   291       H         14.94578151      4.08983161      1.46070903   
   292       H         21.48001147      2.24930117      5.24312643   
   293       H         19.19855192      4.53076072      0.40662382   
   294       H         21.13829197      3.64628101      7.20966889   
   295       H         21.45736727      0.59733679      3.27161218   
   296       H         17.54658754      4.50811652      2.37813807   
   297       H         20.22086293      6.24708704      6.79138398   
   298       H          1.11898953     13.54880167      6.05637407   
   299       H          1.46070903     14.94578151      4.08983161   
   300       H          1.55991864      9.29603126      7.11045928   
   301       H         11.89683729      8.02788832      1.14163373   
   302       H         15.80761702      8.92136243      5.05241346   
   303       H         22.19237718      7.89905142      6.76873978   
   304       H         15.83026122     10.89287668      3.40044908   
   305       H         15.48854172     12.85941914      2.00346924   
   306       H          5.24312643     21.48001147      2.24930117   
   307       H          0.40662382     19.19855192      4.53076072   
   308       H          7.20966889     21.13829197      3.64628101   
   309       H          2.37813807     17.54658754      4.50811652   
   310       H          3.27161218     21.45736727      0.59733679   
   311       H          6.79138398     20.22086293      6.24708704   
   312       H         21.03908236     20.59553176      4.18904122   
   313       H          6.05637407      1.11898953     13.54880167   
   314       H          4.08983161      1.46070903     14.94578151   
   315       H          7.11045928      1.55991864      9.29603126   
   316       H          8.02788832      1.14163373     11.89683729   
   317       H          1.14163373     11.89683729      8.02788832   
   318       H         17.35587457     10.18051097      9.05019933   
   319       H         18.06824028     11.70612432     14.69994958   
   320       H         15.38933211      9.83879147      7.65321949   
   321       H         18.40995978      9.73958186     13.30296974   
   322       H         19.32738882     10.15786677     10.70216371   
   323       H         22.00166421     14.57111268     12.44113423   
   324       H          5.05241346     15.80761702      8.92136243   
   325       H          3.40044908     15.83026122     10.89287668   
   326       H          6.76873978     22.19237718      7.89905142   
   327       H          2.00346924     15.48854172     12.85941914   
   328       H         14.69994958     18.06824028     11.70612432   
   329       H          9.05019933     17.35587457     10.18051097   
   330       H         13.30296974     18.40995978      9.73958186   
   331       H          7.65321949     15.38933211      9.83879147   
   332       H         10.70216371     19.32738882     10.15786677   
   333       H         12.44113423     22.00166421     14.57111268   
   334       H         20.34969983     16.54262693     12.41849003   
   335       H         18.95271999     18.50916939     12.76020953   
   336       H         16.35191396     18.09088448     13.67763857   
   337       H          2.24930117      5.24312643     21.48001147   
   338       H          4.53076072      0.40662382     19.19855192   
   339       H          3.64628101      7.20966889     21.13829197   
   340       H          0.59733679      3.27161218     21.45736727   
   341       H          4.50811652      2.37813807     17.54658754   
   342       H          6.24708704      6.79138398     20.22086293   
   343       H          8.92136243      5.05241346     15.80761702   
   344       H          7.89905142      6.76873978     22.19237718   
   345       H         10.89287668      3.40044908     15.83026122   
   346       H         12.85941914      2.00346924     15.48854172   
   347       H         20.59553176      4.18904122     21.03908236   
   348       H         10.18051097      9.05019933     17.35587457   
   349       H         11.70612432     14.69994958     18.06824028   
   350       H          9.83879147      7.65321949     15.38933211   
   351       H          9.73958186     13.30296974     18.40995978   
   352       H         10.15786677     10.70216371     19.32738882   
   353       H         14.57111268     12.44113423     22.00166421   
   354       H         16.54262693     12.41849003     20.34969983   
   355       H         18.50916939     12.76020953     18.95271999   
   356       H         18.09088448     13.67763857     16.35191396   
   357       H          4.18904122     21.03908236     20.59553176   
   358       H         12.41849003     20.34969983     16.54262693   
   359       H         12.76020953     18.95271999     18.50916939   
   360       H         13.67763857     16.35191396     18.09088448   
   361      Tv         22.59900100      0.00000000      0.00000000   
   362      Tv          0.00000000     22.59900100      0.00000000   
   363      Tv          0.00000000      0.00000000     22.59900100   

                             CARTESIAN COORDINATES

   1    N       14.398840492     7.212403372     5.323375478
   2    N       20.048590742     0.326374772     1.562653122
   3    N       17.275625522     3.099339992     4.087097128
   4    N        5.323375478    14.398840492     7.212403372
   5    N       11.625875272     9.736847378     2.550410258
   6    N        4.087097128    17.275625522     3.099339992
   7    N        1.562653122    20.048590742     0.326374772
   8    N        8.200160508    18.511903872     5.976125022
   9    N        7.212403372     5.323375478    14.398840492
  10    N        9.736847378     2.550410258    11.625875272
  11    N       18.511903872     5.976125022     8.200160508
  12    N        2.550410258    11.625875272     9.736847378
  13    N       22.272626228    12.862153622    13.849910758
  14    N       21.036347878     8.749090242    10.973125728
  15    N       10.973125728    21.036347878     8.749090242
  16    N       13.849910758    22.272626228    12.862153622
  17    N        0.326374772     1.562653122    20.048590742
  18    N        3.099339992     4.087097128    17.275625522
  19    N        5.976125022     8.200160508    18.511903872
  20    N        8.749090242    10.973125728    21.036347878
  21    N       12.862153622    13.849910758    22.272626228
  22    N       15.386597628    16.622875978    19.499661008
  23    N       19.499661008    15.386597628    16.622875978
  24    N       16.622875978    19.499661008    15.386597628
  25    C       13.841164944     5.801638136     2.137097129
  26    C       14.613598799     4.659778412     2.328488068
  27    C       14.360806373     5.018921736     4.649812253
  28    C       14.626209041     6.990458583     6.678818360
  29    C       14.764695719     4.587665000     5.900531364
  30    C       13.831673364     6.286092920     4.468342275
  31    C       13.506835324     6.695541620     3.159882716
  32    C       14.841215937     5.548416330     6.884672660
  33    C       14.991047313     4.261358025     3.599094300
  34    C       19.490915194     3.512653121     0.151887886
  35    C       20.461903871     2.541664444     5.497862364
  36    C       20.270512932     3.314098299     6.639722088
  37    C       20.475983049     0.873338394     2.775767496
  38    C       17.822566545     3.526732299     2.873982754
  39    C       18.780199212     2.605551820     2.387584456
  40    C       19.554802570     1.830948462     3.262165794
  41    C       15.714328340     3.541715437     5.751084170
  42    C       17.949188747     3.061305873     6.280578764
  43    C       15.920182640     3.326708541     4.309041917
  44    C       16.698469636     3.465195219     6.711835500
  45    C       19.481423614     1.181407975     0.636342670
  46    C       18.130658725     2.532172864     5.013407580
  47    C       18.999906700     3.691546813     7.038142475
  48    C       19.156585574     2.489867534     1.045791370
  49    C       19.439118284     2.207334824     4.603958880
  50    C        2.137097129    13.841164944     5.801638136
  51    C        2.328488068    14.613598799     4.659778412
  52    C        4.649812253    14.360806373     5.018921736
  53    C        6.678818360    14.626209041     6.990458583
  54    C        5.900531364    14.764695719     4.587665000
  55    C        4.468342275    13.831673364     6.286092920
  56    C        3.159882716    13.506835324     6.695541620
  57    C        6.884672660    14.841215937     5.548416330
  58    C        3.599094300    14.991047313     4.261358025
  59    C       14.812153621    11.147612614     3.108085806
  60    C       14.620762682    12.289472338     2.335651951
  61    C        8.963848549     7.978238318     0.989971838
  62    C       12.172816295     8.523733004     2.123017951
  63    C       14.826232799     8.425517746     4.776434455
  64    C       13.905052320     8.911916044     3.818801788
  65    C       13.130448962     8.037334706     3.044198430
  66    C       11.198166580    13.407535313     1.234922410
  67    C       10.064578090    11.400834420     2.108034813
  68    C       12.299438497    11.930329014     2.588444377
  69    C        8.711056123    10.299562503     0.630828514
  70    C       10.270432390     9.958792167     2.323041709
  71    C       12.640208833    13.622542209     1.029068110
  72    C       10.237415250    13.484055531     0.250781114
  73    C       11.048719386    12.361585750     2.184555031
[...]
  293          H           0.159871        0.8401     0.84013
  294          H           0.166505        0.8335     0.83350
  295          H           0.206060        0.7939     0.79394
  296          H           0.205536        0.7945     0.79446
  297          H           0.205981        0.7940     0.79402
  298          H           0.160145        0.8399     0.83986
  299          H           0.166425        0.8336     0.83358
  300          H           0.166488        0.8335     0.83351
  301          H           0.205756        0.7942     0.79424
  302          H           0.205820        0.7942     0.79418
  303          H           0.159924        0.8401     0.84008
  304          H           0.160151        0.8398     0.83985
  305          H           0.166455        0.8335     0.83355
  306          H           0.159718        0.8403     0.84028
  307          H           0.160163        0.8398     0.83984
  308          H           0.166352        0.8336     0.83365
  309          H           0.205914        0.7941     0.79409
  310          H           0.205692        0.7943     0.79431
  311          H           0.205565        0.7944     0.79444
  312          H           0.166522        0.8335     0.83348
  313          H           0.159989        0.8400     0.84001
  314          H           0.166412        0.8336     0.83359
  315          H           0.166337        0.8337     0.83366
  316          H           0.205747        0.7943     0.79425
  317          H           0.205820        0.7942     0.79418
  318          H           0.160023        0.8400     0.83998
  319          H           0.159777        0.8402     0.84022
  320          H           0.166346        0.8337     0.83365
  321          H           0.166534        0.8335     0.83347
  322          H           0.205642        0.7944     0.79436
  323          H           0.205891        0.7941     0.79411
  324          H           0.205911        0.7941     0.79409
  325          H           0.160057        0.8399     0.83994
  326          H           0.160031        0.8400     0.83997
  327          H           0.166427        0.8336     0.83357
  328          H           0.159958        0.8400     0.84004
  329          H           0.159907        0.8401     0.84009
  330          H           0.166623        0.8334     0.83338
  331          H           0.166496        0.8335     0.83350
  332          H           0.206060        0.7939     0.79394
  333          H           0.205444        0.7946     0.79456
  334          H           0.160523        0.8395     0.83948
  335          H           0.166570        0.8334     0.83343
  336          H           0.206171        0.7938     0.79383
  337          H           0.160008        0.8400     0.83999
  338          H           0.159710        0.8403     0.84029
  339          H           0.166385        0.8336     0.83362
  340          H           0.205651        0.7943     0.79435
  341          H           0.205901        0.7941     0.79410
  342          H           0.205842        0.7942     0.79416
  343          H           0.205686        0.7943     0.79431
  344          H           0.159855        0.8401     0.84014
  345          H           0.159461        0.8405     0.84054
  346          H           0.166220        0.8338     0.83378
  347          H           0.166346        0.8337     0.83365
  348          H           0.159789        0.8402     0.84021
  349          H           0.159864        0.8401     0.84014
  350          H           0.166443        0.8336     0.83356
  351          H           0.166441        0.8336     0.83356
  352          H           0.205676        0.7943     0.79432
  353          H           0.206015        0.7940     0.79398
  354          H           0.159947        0.8401     0.84005
  355          H           0.166562        0.8334     0.83344
  356          H           0.205895        0.7941     0.79410
  357          H           0.166448        0.8336     0.83355
  358          H           0.159931        0.8401     0.84007
  359          H           0.166365        0.8336     0.83363
  360          H           0.205594        0.7944     0.79441


          ATOMIC ORBITAL ELECTRON POPULATIONS

     Atom    s        px        py        pz   
    1  N   1.48788   1.21691   1.13659   1.09368
    2  N   1.48772   1.21451   1.09320   1.13628
    3  N   1.48814   1.09493   1.22273   1.13729
    4  N   1.48784   1.09401   1.21774   1.13656
    5  N   1.48796   1.09442   1.13689   1.21999
    6  N   1.48781   1.13647   1.09339   1.21567
    7  N   1.48803   1.13704   1.22133   1.09470
    8  N   1.48814   1.22248   1.13730   1.09484
    9  N   1.48797   1.13690   1.09438   1.22006
   10  N   1.48791   1.13664   1.21711   1.09368
   11  N   1.48778   1.13636   1.09370   1.21628
   12  N   1.48790   1.21850   1.09413   1.13671
   13  N   1.48786   1.09375   1.13657   1.21696
   14  N   1.48800   1.13697   1.22028   1.09440
   15  N   1.48767   1.09330   1.13611   1.21442
   16  N   1.48828   1.22524   1.09548   1.13759
   17  N   1.48802   1.09426   1.13699   1.21985
   18  N   1.48783   1.21707   1.13653   1.09380
   19  N   1.48788   1.09384   1.21754   1.13663
   20  N   1.48798   1.21948   1.09420   1.13691
   21  N   1.48777   1.13635   1.21538   1.09342
   22  N   1.48813   1.13737   1.09466   1.22208
   23  N   1.48791   1.21957   1.13685   1.09436
   24  N   1.48768   1.09273   1.21308   1.13634
   25  C   1.07167   1.04264   1.01343   1.07162
   26  C   1.08078   0.97144   0.99035   1.04668
   27  C   1.06040   0.96293   0.97007   1.00191
   28  C   1.08114   1.21510   0.97023   0.82019
   29  C   1.03636   1.10667   1.02281   0.98622
   30  C   1.04863   1.05474   0.91849   0.92137
   31  C   1.04951   0.99821   0.97636   0.96201
   32  C   1.07539   0.91005   0.94703   0.93835
   33  C   1.06259   1.01480   0.97940   0.96898
   34  C   1.07147   1.04515   1.07206   1.01463
   35  C   1.07157   1.07180   1.04314   1.01304
   36  C   1.08085   1.04628   0.96994   0.98959
   37  C   1.08399   1.08069   1.11666   0.94448
   38  C   1.08798   1.09955   1.07035   0.93452
   39  C   1.04625   1.01635   1.01030   0.97663
   40  C   1.04873   0.99641   0.99706   0.97334
   41  C   1.07551   0.93638   0.90644   0.94752
   42  C   1.06068   1.00143   0.95854   0.96905
   43  C   1.07856   0.82238   1.22788   0.97048
   44  C   1.03557   0.98718   1.11118   1.02359
   45  C   1.04851   1.05820   0.92254   0.91855
   46  C   1.04840   0.92066   1.05326   0.91867
   47  C   1.06197   0.97001   1.01838   0.98209
   48  C   1.04978   0.99291   0.96126   0.97533
   49  C   1.04986   0.96277   1.00113   0.97746
   50  C   1.07132   1.07224   1.04608   1.01464
   51  C   1.08117   1.04598   0.96737   0.98795
   52  C   1.06105   1.00128   0.95618   0.96829
   53  C   1.08070   0.82065   1.21705   0.97054
   54  C   1.03576   0.98701   1.11004   1.02345
   55  C   1.04832   0.92223   1.05779   0.91876
   56  C   1.05006   0.96176   0.99417   0.97591
   57  C   1.07518   0.93847   0.90951   0.94670
   58  C   1.06174   0.97029   1.01959   0.98416
   59  C   1.07142   1.07216   1.01398   1.04505
   60  C   1.08106   1.04602   0.98849   0.96819
   61  C   1.08081   0.97092   1.04653   0.99010
   62  C   1.08686   1.10472   0.93747   1.07349
   63  C   1.08505   1.07767   0.94179   1.11173
   64  C   1.04790   1.00118   0.97429   1.00359
   65  C   1.04709   1.00969   0.97566   1.00545
   66  C   1.07518   0.94666   0.91127   0.93933
   67  C   1.07533   0.93751   0.94718   0.90812
   68  C   1.06091   1.00124   0.96859   0.95688
   69  C   1.06047   0.96150   1.00169   0.96980
   70  C   1.07966   0.82149   0.97041   1.22223
   71  C   1.08187   0.97028   1.21098   0.81965
   72  C   1.03627   1.02283   1.10701   0.98637
   73  C   1.03567   0.98714   1.02340   1.11042
   74  C   1.03609   1.10817   0.98661   1.02301
   75  C   1.04834   0.92163   0.91870   1.05602
   76  C   1.06175   0.97032   0.98374   1.01945
   77  C   1.06235   1.01609   0.96939   0.98041
   78  C   1.05006   0.96206   0.97656   0.99653
   79  C   1.07549   0.90836   0.93733   0.94743
   80  C   1.07163   1.01379   1.07175   1.04328
   81  C   1.07142   1.01382   1.04492   1.07211
   82  C   1.08086   0.98996   1.04660   0.97083
   83  C   1.08443   0.94331   1.11446   1.07931
   84  C   1.08750   0.93585   1.07181   1.10191
   85  C   1.04667   0.97616   1.00783   1.01294
   86  C   1.04832   0.97380   1.00040   0.99885
   87  C   1.07528   0.94684   0.93900   0.91102
   88  C   1.06049   0.96995   1.00186   0.96242
   89  C   1.08176   0.97019   0.81973   1.21180
   90  C   1.03644   1.02271   0.98617   1.10619
   91  C   1.04861   0.91847   0.92180   1.05590
   92  C   1.04830   0.91875   1.05547   0.92138
   93  C   1.06255   0.97988   0.96905   1.01498
   94  C   1.04957   0.97595   0.96169   0.99630
   95  C   1.05008   0.97686   0.99777   0.96233
   96  C   1.07556   0.90659   0.94764   0.93637
   97  C   1.08781   1.07068   0.93488   1.10014
   98  C   1.04631   1.01013   0.97660   1.01615
   99  C   1.06055   0.95997   0.96945   1.00155
  100  C   1.07866   1.22758   0.97037   0.82227
  101  C   1.03572   1.11040   1.02344   0.98705
  102  C   1.04846   1.05259   0.91860   0.92049
  103  C   1.08105   0.98848   0.96813   1.04599
  104  C   1.06095   0.96843   0.95622   1.00121
  105  C   1.08232   1.20865   0.81935   0.97026
  106  C   1.06168   0.98399   1.01996   0.97045
  107  C   1.07150   1.01368   1.07198   1.04423
  108  C   1.08095   0.98913   1.04621   0.96927
  109  C   1.06073   0.96903   1.00139   0.95864
  110  C   1.07958   0.97034   0.82158   1.22275
  111  C   1.03581   1.02331   0.98698   1.10977
  112  C   1.04841   0.91865   0.92135   1.05517
  113  C   1.04993   0.97672   0.96214   0.99775
  114  C   1.07542   0.94732   0.93726   0.90793
  115  C   1.06195   0.98251   0.96995   1.01826
  116  C   1.07179   1.01292   1.04144   1.07142
  117  C   1.08125   1.04602   0.98768   0.96706
  118  C   1.08061   0.99123   0.97291   1.04687
  119  C   1.08685   0.93748   1.10474   1.07352
  120  C   1.08511   0.94158   1.07757   1.11154
  121  C   1.04787   0.97434   1.00120   1.00368
  122  C   1.04709   0.97562   1.00946   1.00527
  123  C   1.07551   0.90538   0.93582   0.94767
  124  C   1.07546   0.94721   0.90997   0.93813
  125  C   1.06109   1.00139   0.96833   0.95670
  126  C   1.06014   0.97067   0.96521   1.00207
  127  C   1.07765   1.23216   0.82311   0.97062
  128  C   1.08101   0.97013   1.21590   0.82028
  129  C   1.03651   1.02257   1.10575   0.98602
  130  C   1.03604   0.98662   1.02316   1.10835
  131  C   1.03528   1.11271   0.98745   1.02383
  132  C   1.04873   0.91839   1.05345   0.92096
  133  C   1.06187   0.97005   0.98396   1.01886
  134  C   1.06283   0.97794   1.01347   0.96862
  135  C   1.04935   0.97664   0.99991   0.96213
  136  C   1.07497   0.93991   0.94616   0.91190
  137  C   1.07513   0.94650   0.93898   0.91041
  138  C   1.08507   0.94196   1.11218   1.07799
  139  C   1.04813   0.97418   1.00173   0.99982
  140  C   1.06100   0.96846   1.00137   0.95703
  141  C   1.08136   0.97051   0.82012   1.21357
  142  C   1.03593   1.02326   0.98677   1.10904
  143  C   1.04837   0.91872   0.92246   1.05841
  144  C   1.07148   1.04453   1.07204   1.01393
  145  C   1.08101   0.96885   1.04618   0.98885
  146  C   1.08084   0.98985   0.97046   1.04643
  147  C   1.08605   1.07523   1.10769   0.93939
  148  C   1.08578   1.10904   1.07606   0.94016
  149  C   1.04764   1.00566   1.00267   0.97482
  150  C   1.04738   1.00417   1.00777   0.97515
  151  C   1.07528   0.90900   0.93803   0.94691
  152  C   1.07530   0.93854   0.94686   0.91010
  153  C   1.06086   0.95792   1.00143   0.96881
  154  C   1.06060   0.96939   0.96005   1.00159
  155  C   1.08114   0.82018   0.97038   1.21529
  156  C   1.08036   1.21901   0.82088   0.97046
  157  C   1.03588   1.02330   1.10946   0.98683
  158  C   1.03619   0.98641   1.02303   1.10764
  159  C   1.03583   1.10964   0.98691   1.02333
  160  C   1.04838   1.05623   0.92174   0.91866
  161  C   1.06200   1.01824   0.97000   0.98269
  162  C   1.06223   0.98106   1.01692   0.96963
  163  C   1.04991   0.99651   0.96203   0.97637
  164  C   1.07546   0.94731   0.90773   0.93706
  165  C   1.06186   0.98368   0.97008   1.01890
  166  C   1.07132   1.01487   1.07221   1.04623
  167  C   1.07165   1.07171   1.01357   1.04301
  168  C   1.07163   1.01312   1.04284   1.07178
  169  C   1.08117   0.98804   1.04605   0.96759
  170  C   1.08087   1.04659   0.98984   0.97056
  171  C   1.08510   1.11121   0.94168   1.07739
  172  C   1.08685   0.93735   1.07316   1.10427
  173  C   1.04688   0.97583   1.00688   1.01162
  174  C   1.04776   1.00488   0.97442   1.00219
  175  C   1.06061   1.00182   0.96961   0.96099
  176  C   1.07948   0.97040   1.22366   0.82163
  177  C   1.04852   0.92157   0.91855   1.05547
  178  C   1.04846   0.91858   1.05401   0.92098
  179  C   1.06249   0.96929   0.98027   1.01561
  180  C   1.04999   0.97556   0.96153   0.99310
  181  C   1.04959   0.96209   0.97631   0.99775
  182  C   1.04976   0.97705   0.99983   0.96244
  183  C   1.06217   1.01729   0.98106   0.96973
  184  C   1.07127   1.07230   1.01536   1.04696
  185  C   1.07166   1.04233   1.01274   1.07169
  186  C   1.07159   1.04270   1.07169   1.01268
  187  C   1.08077   0.97080   0.99010   1.04642
  188  C   1.08080   0.97001   1.04626   0.98968
  189  C   1.08417   1.11608   0.94420   1.08035
  190  C   1.08909   1.06750   1.09470   0.93171
  191  C   1.04869   0.99728   0.97341   0.99662
  192  C   1.04554   1.01424   1.02170   0.97741
  193  C   1.06074   0.95744   1.00139   0.96885
  194  C   1.08222   0.81951   0.97056   1.20905
  195  C   1.04835   0.92299   0.91872   1.05998
  196  C   1.04834   1.05208   0.92016   0.91872
  197  C   1.06188   1.01913   0.97026   0.98243
  198  C   1.05000   0.96116   0.97500   0.99091
  199  C   1.04976   1.00193   0.97758   0.96280
  200  C   1.04985   1.00346   0.96329   0.97799
  201  C   1.07121   1.04725   1.01486   1.07257
  202  C   1.08135   0.96556   0.98692   1.04561
  203  C   1.08301   1.12108   1.08328   0.94679
  204  C   1.04942   0.99189   0.99257   0.97254
  205  C   1.06127   1.02199   0.98647   0.97100
  206  C   1.05039   0.99312   0.97603   0.96171
  207  C   1.07177   1.07153   1.01266   1.04154
  208  C   1.07142   1.04529   1.01439   1.07212
  209  C   1.08107   0.96848   0.98859   1.04616
  210  C   1.08650   1.10561   0.93811   1.07399
  211  C   1.08539   1.07720   0.94113   1.11085
  212  C   1.04793   1.00068   0.97442   1.00299
  213  C   1.04703   1.01027   0.97551   1.00593
  214  C   1.07524   0.90997   0.94685   0.93859
  215  C   1.06085   0.95829   0.96890   1.00143
  216  C   1.08100   1.21549   0.97034   0.82039
  217  C   1.03601   1.10861   1.02313   0.98675
  218  C   1.04862   0.92066   0.91848   1.05273
  219  C   1.04842   1.05727   0.91865   0.92213
  220  C   1.06198   1.01815   0.98290   0.96992
  221  C   1.04955   0.96248   0.97721   1.00126
  222  C   1.04994   0.99448   0.97589   0.96163
  223  C   1.08105   0.96897   1.04631   0.98882
  224  C   1.06080   0.95978   1.00163   0.96927
  225  C   1.07976   0.82134   0.97020   1.22241
  226  C   1.06224   1.01667   0.96952   0.98188
  227  C   1.07538   0.93819   0.90963   0.94710
  228  C   1.08551   1.11013   1.07676   0.94078
  229  C   1.04777   1.00435   1.00167   0.97457
  230  C   1.06057   1.00171   0.96103   0.96962
  231  C   1.08078   0.82053   1.21686   0.97025
  232  C   1.03619   0.98648   1.10762   1.02296
  233  C   1.04854   0.92155   1.05543   0.91857
  234  C   1.06233   0.96937   1.01619   0.98082
  235  C   1.07167   1.04261   1.07173   1.01311
  236  C   1.07150   1.01440   1.04477   1.07199
  237  C   1.07159   1.07180   1.04355   1.01370
  238  C   1.08103   0.98894   0.96914   1.04636
  239  C   1.08089   1.04649   0.97026   0.98966
  240  C   1.08642   1.07438   1.10624   0.93842
  241  C   1.08444   0.94345   1.07954   1.11469
  242  C   1.04843   0.97362   0.99796   0.99911
  243  C   1.04720   1.00486   1.00885   0.97539
  244  C   1.06076   0.96929   0.95983   1.00166
  245  C   1.07985   1.22166   0.82130   0.97023
  246  C   1.04854   1.05391   0.92102   0.91854
  247  C   1.04850   0.91857   1.05748   0.92225
  248  C   1.06225   0.98173   1.01667   0.96953
  249  C   1.04970   0.99943   0.96226   0.97691
  250  C   1.04977   0.97558   0.99407   0.96150
  251  C   1.04970   0.96193   0.99718   0.97632
  252  C   1.07175   1.01248   1.07168   1.04167
  253  C   1.08074   0.99046   1.04654   0.97141
  254  C   1.08673   1.07390   0.93787   1.10548
  255  C   1.04727   1.00464   0.97555   1.00854
  256  C   1.06231   0.98023   0.96948   1.01620
  257  C   1.04972   0.97758   0.96265   1.00189
  258  C   1.08067   1.04669   0.99080   0.97208
  259  C   1.06031   1.00184   0.97023   0.96297
  260  C   1.07910   0.97053   1.22509   0.82199
  261  C   1.06255   0.96911   0.97923   1.01506
  262  C   1.07153   1.07214   1.04503   1.01474
  263  C   1.08108   1.04638   0.96914   0.98889
  264  C   1.08752   0.93560   1.10153   1.07151
  265  C   1.04653   0.97632   1.01419   1.00866
  266  C   1.06238   0.96927   1.01558   0.98131
  267  C   1.04976   0.96081   0.99113   0.97490
  268  C   1.07509   0.91210   0.93983   0.94653
  269  C   1.07554   0.93722   0.94757   0.90831
  270  C   1.07534   0.94726   0.90747   0.93716
  271  C   1.07508   0.94055   0.91340   0.94659
  272  C   1.07565   0.94798   0.93643   0.90693
  273  C   1.07521   0.90847   0.94701   0.93794
  274  C   1.06037   0.97005   1.00165   0.96186
  275  C   1.06124   0.95368   0.96775   1.00091
  276  C   1.06067   1.00173   0.96155   0.96984
  277  C   1.07886   0.97006   0.82206   1.22641
  278  C   1.07991   1.22055   0.97045   0.82132
  279  C   1.08326   0.81858   1.20306   0.96989
  280  C   1.03552   1.02362   1.11143   0.98732
  281  C   1.03552   1.11114   1.02351   0.98737
  282  C   1.03616   0.98653   1.02296   1.10786
  283  C   1.03673   0.98592   1.10422   1.02219
  284  C   1.03634   1.10670   0.98634   1.02279
  285  C   1.03599   1.02298   0.98676   1.10862
  286  C   1.04856   0.91849   0.92041   1.05191
  287  C   1.04822   1.05803   0.91883   0.92233
  288  C   1.04863   0.92283   1.05839   0.91839
  289  H   0.84036
  290  H   0.83352
  291  H   0.83367
  292  H   0.84001
  293  H   0.84013
  294  H   0.83350
  295  H   0.79394
  296  H   0.79446
  297  H   0.79402
  298  H   0.83986
  299  H   0.83358
  300  H   0.83351
  301  H   0.79424
  302  H   0.79418
  303  H   0.84008
  304  H   0.83985
  305  H   0.83355
  306  H   0.84028
  307  H   0.83984
  308  H   0.83365
  309  H   0.79409
  310  H   0.79431
  311  H   0.79444
  312  H   0.83348
  313  H   0.84001
  314  H   0.83359
  315  H   0.83366
  316  H   0.79425
  317  H   0.79418
  318  H   0.83998
  319  H   0.84022
  320  H   0.83365
  321  H   0.83347
  322  H   0.79436
  323  H   0.79411
  324  H   0.79409
  325  H   0.83994
  326  H   0.83997
  327  H   0.83357
  328  H   0.84004
  329  H   0.84009
  330  H   0.83338
  331  H   0.83350
  332  H   0.79394
  333  H   0.79456
  334  H   0.83948
  335  H   0.83343
  336  H   0.79383
  337  H   0.83999
  338  H   0.84029
  339  H   0.83362
  340  H   0.79435
  341  H   0.79410
  342  H   0.79416
  343  H   0.79431
  344  H   0.84014
  345  H   0.84054
  346  H   0.83378
  347  H   0.83365
  348  H   0.84021
  349  H   0.84014
  350  H   0.83356
  351  H   0.83356
  352  H   0.79432
  353  H   0.79398
  354  H   0.84005
  355  H   0.83344
  356  H   0.79410
  357  H   0.83355
  358  H   0.84007
  359  H   0.83363
  360  H   0.79441

 **********************
 *                    *
 * JOB ENDED NORMALLY *
 *                    *
 **********************



 TOTAL JOB TIME:           237.07 SECONDS

 == MOPAC DONE ==
