 *******************************************************************************
 **                                                                           **
 **                              MOPAC v22.1.0                                **
 **                                                                           **
 *******************************************************************************
 **          Digital Object Identifier (DOI): 10.5281/zenodo.6511958          **
 **    Visit the DOI location for information on how to cite this program.    **
 *******************************************************************************

                              PM7 CALCULATION RESULTS

 *******************************************************************************
 *  CALCULATION DONE:                                Thu Feb  1 10:38:46 2024  *
 *  PM7        - The PM7 Hamiltonian to be used
 *  NOOPT      - DO NOT OPTIMIZE ANY COORDINATES
 *
 *
 *
 *                 CHARGE ON SYSTEM = 0
 *
 *
 *
 *  T=         - A TIME OF 172800.0 SECONDS REQUESTED
 *  DUMP=N     - RESTART FILE WRITTEN EVERY 7200.0 SECONDS REQUESTED
 *******************************************************************************
PM7 CHARGE=0 NOOPT


   ATOM   CHEMICAL          X               Y               Z
  NUMBER   SYMBOL      (ANGSTROMS)     (ANGSTROMS)     (ANGSTROMS)

     1       N         15.51974455      5.04101734      5.83383925   
     2       N         17.63073729      3.78744455      6.69125919   
     3       N          5.83355767     15.51986187      5.04061844   
     4       N         11.76475154     12.55757345      2.07863506   
     5       N          9.65347723     11.69984846      0.82489801   
     6       N          6.69104801     17.63038532      3.78756187   
     7       N          7.94506663     16.77371624      5.89869540   
     8       N         22.63951427     21.38594148      0.03221690   
     9       N          5.04106427      5.83376885     15.51972109   
    10       N         12.55738573      2.07868198     11.76454036   
    11       N         11.69991885      0.82513266      9.65359455   
    12       N         16.77334081      5.89848422      7.94485545   
    13       N          0.82503880      9.65359455     11.70003617   
    14       N          2.07872891     11.76465768     12.55736227   
    15       N         23.43226578     10.90716734     13.81095852   
    16       N         13.81105238     23.43228925     10.90728466   
    17       N          3.78746802      6.69130612     17.63073729   
    18       N         21.38584762      0.03235768     22.63953773   
    19       N          5.89841382      7.94485545     16.77343466   
    20       N         10.90737852     13.81098198     23.43247696   
    21       N          0.03235768     22.63939695     21.38591802   
    22       N         19.67710852     18.42334801     17.56651468   
    23       N         17.56590460     19.67739010     18.42308990   
    24       N         18.42388770     17.56576381     19.67708506   
    25       C         14.48626971      6.09164481      2.35535308   
    26       C         15.29019037      4.95999408      2.53614783   
    27       C         14.74909669      5.25189370      4.78013792   
    28       C         14.58566575      6.63707943      4.67389021   
    29       C         15.07218077      7.61574097      5.57584597   
    30       C         14.17355698      7.00671728      3.37183956   
    31       C         15.62179210      4.58155701      3.84094384   
    32       C         15.68101675      7.17974524      6.77814861   
    33       C         20.35237278      3.51079692      0.22556520   
    34       C         21.10929385      2.75394624      5.64063173   
    35       C         20.92840524      3.55789037      6.77228246   
    36       C         20.88506613      0.74791066      3.06600196   
    37       C         18.34643105      3.28656920      2.80014804   
    38       C         19.50156985      2.60900541      2.43173036   
    39       C         20.20743194      1.90316678      3.43444311   
    40       C         16.54090048      4.11212422      5.93318836   
    41       C         17.53136471      4.80869434      7.62024617   
    42       C         15.84440076      5.79908817      6.92369952   
    43       C         18.68453248      3.01674976      6.48040630   
    44       C         16.68652179      3.94866982      4.55260169   
    45       C         20.45181575      1.19233018      0.77076518   
    46       C         18.79075672      2.85334229      5.09517364   
    47       C         20.93835423      0.29028057      1.74966136   
    48       C         17.88870710      3.33990423      4.11653557   
    49       C         19.62360923      3.88953903      7.15076646   
    50       C         20.03975391      2.49428698      1.14052035   
    51       C         20.09269005      2.44130391      4.72565312   
    52       C         18.91204524      4.95415139      7.78358325   
    53       C          2.35547041     14.48626971      6.09166827   
    54       C          2.53638247     15.29042501      4.95978290   
    55       C          4.78044296     14.74930787      5.25187024   
    56       C          4.67344438     14.58559536      6.63668053   
    57       C          5.57622140     15.07234502      7.61581136   
    58       C          3.37200381     14.17355698      7.00688153   
    59       C          3.84035722     15.62097084      4.58219055   
    60       C         15.24316731     11.50675826      3.11222722   
    61       C         15.06197367     12.63864364      2.30807191   
    62       C          9.42432194      8.40248554      0.90646096   
    63       C         12.48035145      8.66618072      2.57958080   
    64       C         15.01893959      8.93215196      5.11826280   
    65       C         14.34132887      9.30064004      3.96298322   
    66       C         13.63539638      8.29788036      3.25712113   
    67       C         11.66575439     13.48634924      1.05757299   
    68       C         10.67484434     11.79875175      1.75423696   
    69       C         12.81838248     12.34662669      2.84918906   
    70       C          8.88315787     10.64656949      0.61406858   
    71       C         10.82081761     10.41952602      1.91766790   
    72       C         13.04500358     13.65022601      0.91110695   
    73       C         12.92493522     10.96169907      3.01285464   
    74       C         12.02218167      9.98254478      2.52605805   
    75       C         13.75785813     13.01618905      1.97752609   
    76       C          9.75505548      9.70688266      1.28407677   
    77       C         14.22637580     10.59163886      3.42486955   
    78       C          9.97768761     12.78909865      0.06661600   
    79       C          6.77793743     15.68094635      7.17918209   
    80       C          5.64070212     21.10978660      2.75392278   
    81       C          0.22561213     20.35234931      3.51086731   
    82       C          6.77221206     20.92788902      3.55784344   
    83       C          2.80042962     18.34664224      3.28642841   
    84       C          3.06574385     20.88513652      0.74774641   
    85       C          3.43495933     20.20736155      1.90333103   
    86       C          2.43133146     19.50147599      2.60909927   
    87       C          6.92369952     15.84425997      5.79962786   
    88       C          5.93274253     16.54038426      4.11245273   
    89       C          7.62102050     17.53159935      4.80979717   
    90       C          6.48096945     18.68598728      3.01658551   
    91       C          4.55323524     16.68750730      3.94810667   
    92       C          5.09451663     18.79075672      2.85322497   
    93       C          0.77121101     20.45179229      1.19223633   
    94       C          4.11639478     17.88830820      3.34011542   
    95       C          1.74970829     20.93835423      0.29030403   
    96       C          7.15013291     19.62335112      3.88874123   
    97       C          4.72570005     20.09238501      2.44130391   
    98       C          1.14047342     20.03973045      2.49431044   
    99       C          7.78370058     18.91117705      4.95443297   
   100       C          8.44559001     20.66459275      6.61396680   
   101       C          9.12336498     21.03268193      7.76936371   
   102       C          8.71524520     16.98463953      6.95143468   
   103       C          8.87888732     18.36827660      7.05866790   
   104       C          8.39230191     19.34834601      6.15621939   
   105       C         22.55844408     21.15636383      3.32995524   
   106       C         22.85015598     20.61522323      1.08627019   
   107       C         21.54716675     22.55257793      1.31354831   
   108       C         22.18003047     21.48791863      2.02511230   
   109       C          6.09173866      2.35535308     14.48622278   
   110       C          4.95990022      2.53619476     15.29028423   
   111       C          5.25198756      4.78032564     14.74916709   
   112       C          6.63684479      4.67377289     14.58566575   
   113       C          7.61581136      5.57596329     15.07225116   
   114       C          7.00669381      3.37188648     14.17358045   
   115       C          4.58165087      3.84087344     15.62167477   
   116       C         11.50680519      3.11220376     15.24323770   
   117       C          8.40239168      0.90620285      9.42411076   
   118       C         12.63845592      2.30823617     15.06216139   
   119       C          8.93219889      5.11826280     15.01893959   
   120       C          8.66629804      2.57958080     12.48030452   
   121       C          8.29788036      3.25712113     13.63539638   
   122       C          9.30064004      3.96293629     14.34125848   
   123       C         13.48649003      1.05733834     11.66535550   
   124       C         11.79915065      1.75404924     10.67472701   
   125       C         10.64635831      0.61418591      8.88301709   
   126       C         12.34662669      2.84937677     12.81857019   
   127       C         13.64982711      0.91181089     13.04561366   
   128       C         10.41900980      1.91759751     10.82060643   
   129       C         10.96132364      3.01283118     12.92465365   
   130       C          9.98263864      2.52617537     12.02243978   
   131       C          9.70697652      1.28440527      9.75538399   
   132       C         13.01670527      1.97686909     13.75745923   
   133       C         10.59175619      3.42486955     14.22644619   
   134       C         12.78970873      0.06687411      9.97813343   
   135       C         20.66442849      6.61401373      8.44566041   
   136       C         21.03296350      7.76934024      9.12334152   
   137       C         16.98424063      6.95211515      8.71552677   
   138       C         18.36933250      7.05843326      8.87893425   
   139       C         19.34808790      6.15645403      8.39241923   
   140       C          3.11222722     15.24319078     11.50675826   
   141       C          2.30816577     15.06213792     12.63852632   
   142       C          0.90617939      9.42408730      8.40243861   
   143       C          2.57953387     12.48023413      8.66622765   
   144       C          5.11814548     15.01889266      8.93238660   
   145       C          3.96303015     14.34132887      9.30049925   
   146       C          3.25712113     13.63544331      8.29790382   
   147       C          1.75423696     10.67496166     11.79915065   
   148       C          1.05743220     11.66542589     13.48644310   
   149       C          2.84932984     12.81831208     12.34646244   
   150       C          0.61432669      8.88294669     10.64605327   
   151       C          0.91174050     13.04556673     13.64985058   
   152       C          1.91752711     10.82051257     10.41908020   
   153       C          3.01276078     12.92463018     10.96162868   
   154       C          2.52619884     12.02248671      9.98263864   
   155       C          1.97691601     13.75757656     13.01668181   
   156       C          1.28438181      9.75538399      9.70711730   
   157       C          3.42489302     14.22654005     10.59168579   
   158       C          0.06685065      9.97822729     12.78980259   
   159       C         16.31381008      7.89135616      7.84276097   
   160       C         17.82401520      9.37694692      8.97835376   
   161       C         19.95380308     11.95793559     14.84457415   
   162       C         23.23908173      8.62009624      8.22136230   
   163       C         16.69227061      9.19615217      8.17438617   
   164       C         20.13471515     10.82602675     14.04044231   
   165       C         22.71692399     14.79813771     14.31171655   
   166       C         20.39859804      9.15271920     10.98427202   
   167       C         20.03013343      8.47515541      9.82920362   
   168       C         21.56124551     15.16728279     14.98949152   
   169       C         22.37851752     11.11787945     14.58155945   
   170       C         22.15138020      9.81470249     12.64397010   
   171       C         22.27231674     12.50325290     14.74510771   
   172       C         22.69367057      8.71946882     10.53987596   
   173       C         23.17438983     13.48203176     14.25852230   
   174       C         21.71493864      9.20614809     11.44223061   
   175       C         21.43929998     10.44798858     13.70930987   
   176       C         18.73897035      8.36046044      9.29101955   
   177       C         20.97026609     12.87286728     15.15719302   
   178       C         22.32407965      8.30745391      9.23815381   
   179       C          7.84306601     16.31411512      7.89152041   
   180       C          8.22147962     23.23910519      8.62011971   
   181       C          8.97854147     17.82422638      9.37697038   
   182       C         14.84450376     19.95375615     11.95781827   
   183       C          8.17410459     16.69194211      9.19608178   
   184       C         14.04048924     20.13466822     10.82609715   
   185       C         10.98427202     20.39843379      9.15271920   
   186       C         14.31183387     22.71668934     14.79834889   
   187       C          9.82929748     20.03048540      8.47524927   
   188       C         14.98930380     21.56157401     15.16655539   
   189       C         14.58160638     22.37858792     11.11806717   
   190       C         12.64415782     22.15128634      9.81481982   
   191       C         10.53992289     22.69390521      8.71951575   
   192       C         14.74506078     22.27234021     12.50301825   
   193       C         11.44211329     21.71496210      9.20607770   
   194       C         14.25856923     23.17429597     13.48203176   
   195       C         13.70912216     21.43939384     10.44784780   
   196       C          9.23808341     22.32400926      8.30743045   
   197       C          9.29099609     18.73908767      8.36043698   
   198       C         15.15716955     20.97033648     12.87289074   
   199       C         20.71070069     17.37302559     14.08699607   
   200       C         19.90659231     18.50469978     14.26910484   
   201       C         16.85051587     20.17798387     14.53233072   
   202       C         15.69535362     20.85557113     14.16417114   
   203       C         19.57668003     18.88177590     15.57336116   
   204       C         21.02331955     16.45778886     15.10479656   
   205       C          7.17948713      6.77805475     15.68099328   
   206       C          3.51079692      0.22554174     20.35239624   
   207       C          2.75396971      5.64065519     21.10931731   
   208       C          3.55791383      6.77230592     20.92833485   
   209       C          0.74793413      3.06600196     20.88506613   
   210       C          3.28656920      2.80012458     18.34643105   
   211       C          2.60900541      2.43168343     19.50156985   
   212       C          1.90316678      3.43449004     20.20743194   
   213       C          4.80871780      7.62026964     17.53150550   
   214       C          5.79918203      6.92341795     15.84418957   
   215       C          4.11212422      5.93304757     16.54083008   
   216       C          3.01677323      6.48045323     18.68464980   
   217       C          3.94862289      4.55274248     16.68663911   
   218       C          1.19233018      0.77090597     20.45179229   
   219       C          2.85334229      5.09522057     18.79080365   
   220       C          0.29025710      1.74961443     20.93835423   
   221       C          3.33995116      4.11651210     17.88861324   
   222       C          3.88928091      7.15057874     19.62367963   
   223       C          2.49426352      1.14054381     20.03973045   
   224       C          2.44128045      4.72560619     20.09264312   
   225       C          4.95438604      7.78372404     18.91176366   
   226       C         21.15638730      3.33000217     22.55842061   
   227       C         20.61527016      1.08587129     22.85046102   
   228       C         22.55262486      1.31354831     21.54716675   
   229       C         21.48798903      2.02520616     22.17998354   
   230       C          6.61410759      8.44570734     20.66447542   
   231       C          7.76922292      9.12322420     21.03277579   
   232       C          6.95234980      8.71552677     16.98417024   
   233       C          7.05843326      8.87893425     18.36933250   
   234       C          6.15638364      8.39237230     19.34813483   
   235       C          7.89130923      7.84297216     16.31399780   
   236       C          8.61995546      8.22140923     23.23889401   
   237       C         11.95774788     14.84452722     19.95345111   
   238       C          9.37706424      8.97835376     17.82396827   
   239       C         10.82609715     14.04048924     20.13497326   
   240       C          9.19603485      8.17438617     16.69229408   
   241       C          9.15278959     10.98438934     20.39848072   
   242       C         14.79827849     14.31192773     22.71652509   
   243       C         15.16681350     14.98930380     21.56155055   
   244       C          8.47510848      9.82910976     20.03022729   
   245       C         11.11771520     14.58162984     22.37776666   
   246       C          9.81465557     12.64382932     22.15199028   
   247       C          8.71949229     10.53971171     22.69442143   
   248       C         12.50329983     14.74513118     22.27224635   
   249       C          9.20621849     11.44237140     21.71472746   
   250       C         13.48207869     14.25835805     23.17469487   
   251       C         10.44836402     13.70977917     21.43946423   
   252       C          8.30745391      9.23813034     22.32396233   
   253       C         12.87293767     15.15719302     20.97054767   
   254       C          8.36039005      9.29101955     18.73899381   
   255       C         17.37279094     14.08765308     20.71074761   
   256       C         18.50509868     14.26891712     19.90624034   
   257       C         20.17821852     14.53263576     16.85014044   
   258       C         20.85545380     14.16370185     15.69549440   
   259       C         18.88168204     15.57239911     19.57682082   
   260       C         16.45757768     15.10439767     21.02336648   
   261       C          3.32990832     22.55842061     21.15638730   
   262       C          1.08598862     22.85036717     20.61524669   
   263       C          1.31354831     21.54707289     22.55276564   
   264       C          2.02527656     22.18005394     21.48787170   
   265       C         14.08732458     20.71091187     17.37262669   
   266       C         14.26901098     19.90621687     18.50512214   
   267       C         14.53226032     16.85051587     20.17793694   
   268       C         14.16391303     15.69523629     20.85561806   
   269       C         15.57289187     19.57632806     18.88198708   
   270       C         15.10442113     21.02329609     16.45769501   
   271       C         21.71045690     22.40721473     23.39749124   
   272       C         22.40702701     23.39760857     21.71055076   
   273       C         23.39753817     21.71064461     22.40695662   
   274       C         18.65468550     19.35353169     17.66462017   
   275       C         17.66445592     18.65550677     19.35306239   
   276       C         19.35228806     17.66429167     18.65649228   
   277       C         18.21284709     16.51281335     20.44728709   
   278       C         20.44780331     18.21345717     16.51074847   
   279       C         16.51264910     20.44747480     18.21242472   
   280       C         16.28645036     18.50953349     19.51630562   
   281       C         19.51684530     16.28659114     18.50866530   
   282       C         18.50951002     19.51635255     16.28668500   
   283       C         16.82843569     16.40546281     20.61135157   
   284       C         20.61144543     16.82714513     16.40579131   
   285       C         16.40574438     20.61123425     16.82883458   
   286       C         15.84848360     17.30892030     20.12434380   
   287       C         20.12429687     15.84846013     17.30899069   
   288       C         17.30868565     20.12446112     15.84829588   
   289       H         14.14685427      6.32065930      1.34388804   
   290       H          9.76610731      7.52716210      1.45658851   
   291       H         15.63228077      4.40953803      1.66098864   
   292       H         22.12068850      2.41455427      5.41164070   
   293       H         20.01300427      4.52223850      0.45450930   
   294       H         21.80361136      3.89998077      7.32276197   
   295       H         21.37702493      0.18154561      3.85105708   
   296       H         17.77999561      3.77857493      2.01506945   
   297       H          1.34384111     14.14683080      6.32068277   
   298       H          1.66098864     15.63225731      4.40953803   
   299       H          1.45661197      9.76613077      7.52711518   
   300       H         11.91384561      7.88124292      2.08757507   
   301       H         15.51087493      9.71720708      5.68458093   
   302       H         23.01009070      8.28070427      7.21010843   
   303       H         16.25451504     11.27779070      3.45159573   
   304       H         15.93750829     13.18893544      1.96616923   
   305       H          5.41166416     22.12050078      2.41460120   
   306       H          0.45450930     20.01300427      4.52221504   
   307       H          7.32285583     21.80379908      3.90002770   
   308       H          2.01495213     17.77992522      3.77864533   
   309       H          3.85110401     21.37702493      0.18154561   
   310       H          7.95374853     21.44943669      6.04771907   
   311       H         22.00798803     21.49843077      4.20516136   
   312       H          6.32065930      1.34391150     14.14685427   
   313       H          4.40953803      1.66101210     15.63225731   
   314       H          7.52713864      1.45661197      9.76613077   
   315       H          7.88121945      2.08755160     11.91384561   
   316       H          9.71720708      5.68458093     15.51087493   
   317       H         21.44950708      6.04769561      7.95372507   
   318       H          2.08757507     11.91384561      7.88124292   
   319       H          5.68458093     15.51085147      9.71716015   
   320       H         18.05295930     10.38838850      9.31774573   
   321       H         18.94236150     12.18680930     15.18389573   
   322       H         16.14183803     10.07131136      7.83231923   
   323       H         19.25943864     10.27568803     13.69846923   
   324       H         19.61351945      9.64474840     11.55075439   
   325       H         23.28303093     15.58335708     13.81989853   
   326       H          3.45159573     16.25451504     11.27779070   
   327       H          7.21006150     23.01009070      8.28070427   
   328       H          1.96616923     15.93748482     13.18891197   
   329       H         15.18389573     18.94238496     12.18680930   
   330       H          9.31772227     18.05293584     10.38834157   
   331       H         13.69846923     19.25943864     10.27568803   
   332       H          7.83234269     16.14186149     10.07126443   
   333       H         11.55075439     19.61356638      9.64472493   
   334       H         13.81987507     23.28303093     15.58333362   
   335       H         21.04997534     17.14396416     13.07644615   
   336       H         19.56459576     19.05513237     13.39310092   
   337       H         17.41688093     19.68604853     13.74743985   
   338       H          2.41455427      5.41164070     22.12068850   
   339       H          4.52223850      0.45450930     20.01300427   
   340       H          3.89998077      7.32276197     21.80363482   
   341       H          0.18154561      3.85105708     21.37702493   
   342       H          3.77857493      2.01506945     17.77999561   
   343       H          8.28072773      7.21013189     23.01011416   
   344       H         11.27779070      3.45159573     16.25451504   
   345       H         13.18891197      1.96616923     15.93748482   
   346       H         21.49840731      4.20513790     22.00798803   
   347       H          6.04769561      7.95372507     21.44950708   
   348       H         10.38836503      9.31774573     18.05295930   
   349       H         12.18680930     15.18387227     18.94247882   
   350       H         10.07133482      7.83231923     16.14183803   
   351       H         10.27564110     13.69846923     19.25934478   
   352       H          9.64470147     11.55073093     19.61358985   
   353       H         15.58340401     13.81985160     23.28307785   
   354       H         17.14391723     13.07623496     21.05004573   
   355       H         19.05508544     13.39326518     19.56464269   
   356       H         19.68597814     13.74729906     17.41697478   
   357       H          4.20516136     22.00798803     21.49843077   
   358       H         13.07639922     21.04999880     17.14396416   
   359       H         13.39324171     19.56461923     19.05508544   
   360       H         13.74746331     17.41688093     19.68604853   
   361      Tv         23.46460000      0.00000000      0.00000000   
   362      Tv          0.00000000     23.46460000      0.00000000   
   363      Tv          0.00000000      0.00000000     23.46460000   


                   THE SYSTEM IS A SOLID


                UNIT CELL TRANSLATION VECTORS

              X                Y              Z
    T1 =    23.4646000      0.0000000      0.0000000
    T2 =     0.0000000     23.4646000      0.0000000
    T3 =     0.0000000      0.0000000     23.4646000


          CARTESIAN COORDINATES 

    NO.       ATOM           X           Y           Z

     1         N         15.5197      5.0410      5.8338
     2         N         17.6307      3.7874      6.6913
     3         N          5.8336     15.5199      5.0406
     4         N         11.7648     12.5576      2.0786
     5         N          9.6535     11.6998      0.8249
     6         N          6.6910     17.6304      3.7876
     7         N          7.9451     16.7737      5.8987
     8         N         22.6395     21.3859      0.0322
     9         N          5.0411      5.8338     15.5197
    10         N         12.5574      2.0787     11.7645
    11         N         11.6999      0.8251      9.6536
    12         N         16.7733      5.8985      7.9449
    13         N          0.8250      9.6536     11.7000
    14         N          2.0787     11.7647     12.5574
    15         N         23.4323     10.9072     13.8110
    16         N         13.8111     23.4323     10.9073
    17         N          3.7875      6.6913     17.6307
    18         N         21.3858      0.0324     22.6395
    19         N          5.8984      7.9449     16.7734
    20         N         10.9074     13.8110     23.4325
    21         N          0.0324     22.6394     21.3859
    22         N         19.6771     18.4233     17.5665
    23         N         17.5659     19.6774     18.4231
    24         N         18.4239     17.5658     19.6771
    25         C         14.4863      6.0916      2.3554
    26         C         15.2902      4.9600      2.5361
    27         C         14.7491      5.2519      4.7801
    28         C         14.5857      6.6371      4.6739
    29         C         15.0722      7.6157      5.5758
    30         C         14.1736      7.0067      3.3718
    31         C         15.6218      4.5816      3.8409
    32         C         15.6810      7.1797      6.7781
    33         C         20.3524      3.5108      0.2256
    34         C         21.1093      2.7539      5.6406
    35         C         20.9284      3.5579      6.7723
    36         C         20.8851      0.7479      3.0660
    37         C         18.3464      3.2866      2.8001
    38         C         19.5016      2.6090      2.4317
    39         C         20.2074      1.9032      3.4344
    40         C         16.5409      4.1121      5.9332
    41         C         17.5314      4.8087      7.6202
    42         C         15.8444      5.7991      6.9237
    43         C         18.6845      3.0167      6.4804
    44         C         16.6865      3.9487      4.5526
    45         C         20.4518      1.1923      0.7708
    46         C         18.7908      2.8533      5.0952
    47         C         20.9384      0.2903      1.7497
    48         C         17.8887      3.3399      4.1165
    49         C         19.6236      3.8895      7.1508
    50         C         20.0398      2.4943      1.1405
    51         C         20.0927      2.4413      4.7257
    52         C         18.9120      4.9542      7.7836
    53         C          2.3555     14.4863      6.0917
    54         C          2.5364     15.2904      4.9598
    55         C          4.7804     14.7493      5.2519
    56         C          4.6734     14.5856      6.6367
    57         C          5.5762     15.0723      7.6158
    58         C          3.3720     14.1736      7.0069
    59         C          3.8404     15.6210      4.5822
    60         C         15.2432     11.5068      3.1122
    61         C         15.0620     12.6386      2.3081
    62         C          9.4243      8.4025      0.9065
    63         C         12.4804      8.6662      2.5796
    64         C         15.0189      8.9322      5.1183
    65         C         14.3413      9.3006      3.9630
    66         C         13.6354      8.2979      3.2571
    67         C         11.6658     13.4863      1.0576
    68         C         10.6748     11.7988      1.7542
    69         C         12.8184     12.3466      2.8492
    70         C          8.8832     10.6466      0.6141
    71         C         10.8208     10.4195      1.9177
    72         C         13.0450     13.6502      0.9111
    73         C         12.9249     10.9617      3.0129
    74         C         12.0222      9.9825      2.5261
    75         C         13.7579     13.0162      1.9775
    76         C          9.7551      9.7069      1.2841
    77         C         14.2264     10.5916      3.4249
    78         C          9.9777     12.7891      0.0666
    79         C          6.7779     15.6809      7.1792
    80         C          5.6407     21.1098      2.7539
    81         C          0.2256     20.3523      3.5109
    82         C          6.7722     20.9279      3.5578
    83         C          2.8004     18.3466      3.2864
    84         C          3.0657     20.8851      0.7477
    85         C          3.4350     20.2074      1.9033
    86         C          2.4313     19.5015      2.6091
    87         C          6.9237     15.8443      5.7996
    88         C          5.9327     16.5404      4.1125
    89         C          7.6210     17.5316      4.8098
    90         C          6.4810     18.6860      3.0166
    91         C          4.5532     16.6875      3.9481
    92         C          5.0945     18.7908      2.8532
    93         C          0.7712     20.4518      1.1922
    94         C          4.1164     17.8883      3.3401
    95         C          1.7497     20.9384      0.2903
    96         C          7.1501     19.6234      3.8887
    97         C          4.7257     20.0924      2.4413
    98         C          1.1405     20.0397      2.4943
    99         C          7.7837     18.9112      4.9544
   100         C          8.4456     20.6646      6.6140
   101         C          9.1234     21.0327      7.7694
   102         C          8.7152     16.9846      6.9514
   103         C          8.8789     18.3683      7.0587
   104         C          8.3923     19.3483      6.1562
   105         C         22.5584     21.1564      3.3300
   106         C         22.8502     20.6152      1.0863
   107         C         21.5472     22.5526      1.3135
   108         C         22.1800     21.4879      2.0251
   109         C          6.0917      2.3554     14.4862
   110         C          4.9599      2.5362     15.2903
   111         C          5.2520      4.7803     14.7492
   112         C          6.6368      4.6738     14.5857
   113         C          7.6158      5.5760     15.0723
   114         C          7.0067      3.3719     14.1736
   115         C          4.5817      3.8409     15.6217
   116         C         11.5068      3.1122     15.2432
   117         C          8.4024      0.9062      9.4241
   118         C         12.6385      2.3082     15.0622
   119         C          8.9322      5.1183     15.0189
   120         C          8.6663      2.5796     12.4803
   121         C          8.2979      3.2571     13.6354
   122         C          9.3006      3.9629     14.3413
   123         C         13.4865      1.0573     11.6654
   124         C         11.7992      1.7540     10.6747
   125         C         10.6464      0.6142      8.8830
   126         C         12.3466      2.8494     12.8186
   127         C         13.6498      0.9118     13.0456
   128         C         10.4190      1.9176     10.8206
   129         C         10.9613      3.0128     12.9247
   130         C          9.9826      2.5262     12.0224
   131         C          9.7070      1.2844      9.7554
   132         C         13.0167      1.9769     13.7575
   133         C         10.5918      3.4249     14.2264
   134         C         12.7897      0.0669      9.9781
   135         C         20.6644      6.6140      8.4457
   136         C         21.0330      7.7693      9.1233
   137         C         16.9842      6.9521      8.7155
   138         C         18.3693      7.0584      8.8789
   139         C         19.3481      6.1565      8.3924
   140         C          3.1122     15.2432     11.5068
   141         C          2.3082     15.0621     12.6385
   142         C          0.9062      9.4241      8.4024
   143         C          2.5795     12.4802      8.6662
   144         C          5.1181     15.0189      8.9324
   145         C          3.9630     14.3413      9.3005
   146         C          3.2571     13.6354      8.2979
   147         C          1.7542     10.6750     11.7992
   148         C          1.0574     11.6654     13.4864
   149         C          2.8493     12.8183     12.3465
   150         C          0.6143      8.8829     10.6461
   151         C          0.9117     13.0456     13.6499
   152         C          1.9175     10.8205     10.4191
   153         C          3.0128     12.9246     10.9616
   154         C          2.5262     12.0225      9.9826
   155         C          1.9769     13.7576     13.0167
   156         C          1.2844      9.7554      9.7071
   157         C          3.4249     14.2265     10.5917
   158         C          0.0669      9.9782     12.7898
   159         C         16.3138      7.8914      7.8428
   160         C         17.8240      9.3769      8.9784
   161         C         19.9538     11.9579     14.8446
   162         C         23.2391      8.6201      8.2214
   163         C         16.6923      9.1962      8.1744
   164         C         20.1347     10.8260     14.0404
   165         C         22.7169     14.7981     14.3117
   166         C         20.3986      9.1527     10.9843
   167         C         20.0301      8.4752      9.8292
   168         C         21.5612     15.1673     14.9895
   169         C         22.3785     11.1179     14.5816
   170         C         22.1514      9.8147     12.6440
   171         C         22.2723     12.5033     14.7451
   172         C         22.6937      8.7195     10.5399
   173         C         23.1744     13.4820     14.2585
   174         C         21.7149      9.2061     11.4422
   175         C         21.4393     10.4480     13.7093
   176         C         18.7390      8.3605      9.2910
   177         C         20.9703     12.8729     15.1572
   178         C         22.3241      8.3075      9.2382
   179         C          7.8431     16.3141      7.8915
   180         C          8.2215     23.2391      8.6201
   181         C          8.9785     17.8242      9.3770
   182         C         14.8445     19.9538     11.9578
   183         C          8.1741     16.6919      9.1961
   184         C         14.0405     20.1347     10.8261
   185         C         10.9843     20.3984      9.1527
   186         C         14.3118     22.7167     14.7983
   187         C          9.8293     20.0305      8.4752
   188         C         14.9893     21.5616     15.1666
   189         C         14.5816     22.3786     11.1181
   190         C         12.6442     22.1513      9.8148
   191         C         10.5399     22.6939      8.7195
   192         C         14.7451     22.2723     12.5030
   193         C         11.4421     21.7150      9.2061
   194         C         14.2586     23.1743     13.4820
   195         C         13.7091     21.4394     10.4478
   196         C          9.2381     22.3240      8.3074
   197         C          9.2910     18.7391      8.3604
   198         C         15.1572     20.9703     12.8729
   199         C         20.7107     17.3730     14.0870
   200         C         19.9066     18.5047     14.2691
   201         C         16.8505     20.1780     14.5323
   202         C         15.6954     20.8556     14.1642
   203         C         19.5767     18.8818     15.5734
   204         C         21.0233     16.4578     15.1048
   205         C          7.1795      6.7781     15.6810
   206         C          3.5108      0.2255     20.3524
   207         C          2.7540      5.6407     21.1093
   208         C          3.5579      6.7723     20.9283
   209         C          0.7479      3.0660     20.8851
   210         C          3.2866      2.8001     18.3464
   211         C          2.6090      2.4317     19.5016
   212         C          1.9032      3.4345     20.2074
   213         C          4.8087      7.6203     17.5315
   214         C          5.7992      6.9234     15.8442
   215         C          4.1121      5.9330     16.5408
   216         C          3.0168      6.4805     18.6846
   217         C          3.9486      4.5527     16.6866
   218         C          1.1923      0.7709     20.4518
   219         C          2.8533      5.0952     18.7908
   220         C          0.2903      1.7496     20.9384
   221         C          3.3400      4.1165     17.8886
   222         C          3.8893      7.1506     19.6237
   223         C          2.4943      1.1405     20.0397
   224         C          2.4413      4.7256     20.0926
   225         C          4.9544      7.7837     18.9118
   226         C         21.1564      3.3300     22.5584
   227         C         20.6153      1.0859     22.8505
   228         C         22.5526      1.3135     21.5472
   229         C         21.4880      2.0252     22.1800
   230         C          6.6141      8.4457     20.6645
   231         C          7.7692      9.1232     21.0328
   232         C          6.9523      8.7155     16.9842
   233         C          7.0584      8.8789     18.3693
   234         C          6.1564      8.3924     19.3481
   235         C          7.8913      7.8430     16.3140
   236         C          8.6200      8.2214     23.2389
   237         C         11.9577     14.8445     19.9535
   238         C          9.3771      8.9784     17.8240
   239         C         10.8261     14.0405     20.1350
   240         C          9.1960      8.1744     16.6923
   241         C          9.1528     10.9844     20.3985
   242         C         14.7983     14.3119     22.7165
   243         C         15.1668     14.9893     21.5616
   244         C          8.4751      9.8291     20.0302
   245         C         11.1177     14.5816     22.3778
   246         C          9.8147     12.6438     22.1520
   247         C          8.7195     10.5397     22.6944
   248         C         12.5033     14.7451     22.2722
   249         C          9.2062     11.4424     21.7147
   250         C         13.4821     14.2584     23.1747
   251         C         10.4484     13.7098     21.4395
   252         C          8.3075      9.2381     22.3240
   253         C         12.8729     15.1572     20.9705
   254         C          8.3604      9.2910     18.7390
   255         C         17.3728     14.0877     20.7107
   256         C         18.5051     14.2689     19.9062
   257         C         20.1782     14.5326     16.8501
   258         C         20.8555     14.1637     15.6955
   259         C         18.8817     15.5724     19.5768
   260         C         16.4576     15.1044     21.0234
   261         C          3.3299     22.5584     21.1564
   262         C          1.0860     22.8504     20.6152
   263         C          1.3135     21.5471     22.5528
   264         C          2.0253     22.1801     21.4879
   265         C         14.0873     20.7109     17.3726
   266         C         14.2690     19.9062     18.5051
   267         C         14.5323     16.8505     20.1779
   268         C         14.1639     15.6952     20.8556
   269         C         15.5729     19.5763     18.8820
   270         C         15.1044     21.0233     16.4577
   271         C         21.7105     22.4072     23.3975
   272         C         22.4070     23.3976     21.7106
   273         C         23.3975     21.7106     22.4070
   274         C         18.6547     19.3535     17.6646
   275         C         17.6645     18.6555     19.3531
   276         C         19.3523     17.6643     18.6565
   277         C         18.2128     16.5128     20.4473
   278         C         20.4478     18.2135     16.5107
   279         C         16.5126     20.4475     18.2124
   280         C         16.2865     18.5095     19.5163
   281         C         19.5168     16.2866     18.5087
   282         C         18.5095     19.5164     16.2867
   283         C         16.8284     16.4055     20.6114
   284         C         20.6114     16.8271     16.4058
   285         C         16.4057     20.6112     16.8288
   286         C         15.8485     17.3089     20.1243
   287         C         20.1243     15.8485     17.3090
   288         C         17.3087     20.1245     15.8483
   289         H         14.1469      6.3207      1.3439
   290         H          9.7661      7.5272      1.4566
   291         H         15.6323      4.4095      1.6610
   292         H         22.1207      2.4146      5.4116
   293         H         20.0130      4.5222      0.4545
   294         H         21.8036      3.9000      7.3228
   295         H         21.3770      0.1815      3.8511
   296         H         17.7800      3.7786      2.0151
   297         H          1.3438     14.1468      6.3207
   298         H          1.6610     15.6323      4.4095
   299         H          1.4566      9.7661      7.5271
   300         H         11.9138      7.8812      2.0876
   301         H         15.5109      9.7172      5.6846
   302         H         23.0101      8.2807      7.2101
   303         H         16.2545     11.2778      3.4516
   304         H         15.9375     13.1889      1.9662
   305         H          5.4117     22.1205      2.4146
   306         H          0.4545     20.0130      4.5222
   307         H          7.3229     21.8038      3.9000
   308         H          2.0150     17.7799      3.7786
   309         H          3.8511     21.3770      0.1815
   310         H          7.9537     21.4494      6.0477
   311         H         22.0080     21.4984      4.2052
   312         H          6.3207      1.3439     14.1469
   313         H          4.4095      1.6610     15.6323
   314         H          7.5271      1.4566      9.7661
   315         H          7.8812      2.0876     11.9138
   316         H          9.7172      5.6846     15.5109
   317         H         21.4495      6.0477      7.9537
   318         H          2.0876     11.9138      7.8812
   319         H          5.6846     15.5109      9.7172
   320         H         18.0530     10.3884      9.3177
   321         H         18.9424     12.1868     15.1839
   322         H         16.1418     10.0713      7.8323
   323         H         19.2594     10.2757     13.6985
   324         H         19.6135      9.6447     11.5508
   325         H         23.2830     15.5834     13.8199
   326         H          3.4516     16.2545     11.2778
   327         H          7.2101     23.0101      8.2807
   328         H          1.9662     15.9375     13.1889
   329         H         15.1839     18.9424     12.1868
   330         H          9.3177     18.0529     10.3883
   331         H         13.6985     19.2594     10.2757
   332         H          7.8323     16.1419     10.0713
   333         H         11.5508     19.6136      9.6447
   334         H         13.8199     23.2830     15.5833
   335         H         21.0500     17.1440     13.0764
   336         H         19.5646     19.0551     13.3931
   337         H         17.4169     19.6860     13.7474
   338         H          2.4146      5.4116     22.1207
   339         H          4.5222      0.4545     20.0130
   340         H          3.9000      7.3228     21.8036
   341         H          0.1815      3.8511     21.3770
   342         H          3.7786      2.0151     17.7800
   343         H          8.2807      7.2101     23.0101
   344         H         11.2778      3.4516     16.2545
   345         H         13.1889      1.9662     15.9375
   346         H         21.4984      4.2051     22.0080
   347         H          6.0477      7.9537     21.4495
   348         H         10.3884      9.3177     18.0530
   349         H         12.1868     15.1839     18.9425
   350         H         10.0713      7.8323     16.1418
   351         H         10.2756     13.6985     19.2593
   352         H          9.6447     11.5507     19.6136
   353         H         15.5834     13.8199     23.2831
   354         H         17.1439     13.0762     21.0500
   355         H         19.0551     13.3933     19.5646
   356         H         19.6860     13.7473     17.4170
   357         H          4.2052     22.0080     21.4984
   358         H         13.0764     21.0500     17.1440
   359         H         13.3932     19.5646     19.0551
   360         H         13.7475     17.4169     19.6860

 General Reference for PM7:
 "Optimization of Parameters for Semiempirical Methods VI: More Modifications to the 
 NDDO Approximations and Re-optimization of Parameters", J. J. P. Stewart, J. Mol. Mod., 1:32, 19 (2013)
 https://link.springer.com/article/10.1007/s00894-012-1667-x

           Empirical Formula: C264 H72 N24  =   360 atoms



      RHF CALCULATION, NO. OF DOUBLY OCCUPIED LEVELS = 624


 -------------------------------------------------------------------------------
 PM7 CHARGE=0 NOOPT




     NO PARAMETERS MARKED FOR OPTIMIZATION, SO 1SCF WAS USED  
     SCF FIELD WAS ACHIEVED                                   


                              PM7 CALCULATION
                                                       MOPAC v22.1.0 Linux
                                                       Thu Feb  1 10:44:12 2024




          FINAL HEAT OF FORMATION =       4614.97211 KCAL/MOL =   19309.04332 KJ/MOL
          H.o.F. per unit cell    =        192.29050 KCAL, for 24 unit cells, unit cell = C11 H3 N1



          IONIZATION POTENTIAL    =          7.561831 EV
          HOMO LUMO ENERGIES (EV) =         -7.562 -2.397
          NO. OF FILLED LEVELS    =        624
          MOLECULAR WEIGHT        =       3579.6336

                   THE SYSTEM IS A SOLID


                UNIT CELL TRANSLATION VECTORS

              X                Y              Z
    T1 =    23.4646000      0.0000000      0.0000000
    T2 =     0.0000000     23.4646000      0.0000000
    T3 =     0.0000000      0.0000000     23.4646000

          VOLUME OF UNIT CELL     =      12919.314 CUBIC ANGSTROMS

          DENSITY                 =          0.460 GRAMS/CC
                              A   =         23.465 ANGSTROMS
                              B   =         23.465 ANGSTROMS
                              C   =         23.465 ANGSTROMS
                            ALPHA =         90.000 DEGREES
                            BETA  =         90.000 DEGREES
                            GAMMA =         90.000 DEGREES



          SCF CALCULATIONS        =          1

          WALL-CLOCK TIME         =          5 MINUTES AND 26.379 SECONDS
          COMPUTATION TIME        =          5 MINUTES AND 26.369 SECONDS




   ATOM   CHEMICAL          X               Y               Z
  NUMBER   SYMBOL      (ANGSTROMS)     (ANGSTROMS)     (ANGSTROMS)

     1       N         15.51974455      5.04101734      5.83383925   
     2       N         17.63073729      3.78744455      6.69125919   
     3       N          5.83355767     15.51986187      5.04061844   
     4       N         11.76475154     12.55757345      2.07863506   
     5       N          9.65347723     11.69984846      0.82489801   
     6       N          6.69104801     17.63038532      3.78756187   
     7       N          7.94506663     16.77371624      5.89869540   
     8       N         22.63951427     21.38594148      0.03221690   
     9       N          5.04106427      5.83376885     15.51972109   
    10       N         12.55738573      2.07868198     11.76454036   
    11       N         11.69991885      0.82513266      9.65359455   
    12       N         16.77334081      5.89848422      7.94485545   
    13       N          0.82503880      9.65359455     11.70003617   
    14       N          2.07872891     11.76465768     12.55736227   
    15       N         23.43226578     10.90716734     13.81095852   
    16       N         13.81105238     23.43228925     10.90728466   
    17       N          3.78746802      6.69130612     17.63073729   
    18       N         21.38584762      0.03235768     22.63953773   
    19       N          5.89841382      7.94485545     16.77343466   
    20       N         10.90737852     13.81098198     23.43247696   
    21       N          0.03235768     22.63939695     21.38591802   
    22       N         19.67710852     18.42334801     17.56651468   
    23       N         17.56590460     19.67739010     18.42308990   
    24       N         18.42388770     17.56576381     19.67708506   
    25       C         14.48626971      6.09164481      2.35535308   
    26       C         15.29019037      4.95999408      2.53614783   
    27       C         14.74909669      5.25189370      4.78013792   
    28       C         14.58566575      6.63707943      4.67389021   
    29       C         15.07218077      7.61574097      5.57584597   
    30       C         14.17355698      7.00671728      3.37183956   
    31       C         15.62179210      4.58155701      3.84094384   
    32       C         15.68101675      7.17974524      6.77814861   
    33       C         20.35237278      3.51079692      0.22556520   
    34       C         21.10929385      2.75394624      5.64063173   
    35       C         20.92840524      3.55789037      6.77228246   
    36       C         20.88506613      0.74791066      3.06600196   
    37       C         18.34643105      3.28656920      2.80014804   
    38       C         19.50156985      2.60900541      2.43173036   
    39       C         20.20743194      1.90316678      3.43444311   
    40       C         16.54090048      4.11212422      5.93318836   
    41       C         17.53136471      4.80869434      7.62024617   
    42       C         15.84440076      5.79908817      6.92369952   
    43       C         18.68453248      3.01674976      6.48040630   
    44       C         16.68652179      3.94866982      4.55260169   
    45       C         20.45181575      1.19233018      0.77076518   
    46       C         18.79075672      2.85334229      5.09517364   
    47       C         20.93835423      0.29028057      1.74966136   
    48       C         17.88870710      3.33990423      4.11653557   
    49       C         19.62360923      3.88953903      7.15076646   
    50       C         20.03975391      2.49428698      1.14052035   
    51       C         20.09269005      2.44130391      4.72565312   
    52       C         18.91204524      4.95415139      7.78358325   
    53       C          2.35547041     14.48626971      6.09166827   
    54       C          2.53638247     15.29042501      4.95978290   
    55       C          4.78044296     14.74930787      5.25187024   
    56       C          4.67344438     14.58559536      6.63668053   
    57       C          5.57622140     15.07234502      7.61581136   
    58       C          3.37200381     14.17355698      7.00688153   
    59       C          3.84035722     15.62097084      4.58219055   
    60       C         15.24316731     11.50675826      3.11222722   
    61       C         15.06197367     12.63864364      2.30807191   
    62       C          9.42432194      8.40248554      0.90646096   
    63       C         12.48035145      8.66618072      2.57958080   
    64       C         15.01893959      8.93215196      5.11826280   
    65       C         14.34132887      9.30064004      3.96298322   
    66       C         13.63539638      8.29788036      3.25712113   
    67       C         11.66575439     13.48634924      1.05757299   
    68       C         10.67484434     11.79875175      1.75423696   
    69       C         12.81838248     12.34662669      2.84918906   
    70       C          8.88315787     10.64656949      0.61406858   
    71       C         10.82081761     10.41952602      1.91766790   
    72       C         13.04500358     13.65022601      0.91110695   
    73       C         12.92493522     10.96169907      3.01285464   
    74       C         12.02218167      9.98254478      2.52605805   
    75       C         13.75785813     13.01618905      1.97752609   
    76       C          9.75505548      9.70688266      1.28407677   
    77       C         14.22637580     10.59163886      3.42486955   
    78       C          9.97768761     12.78909865      0.06661600   
    79       C          6.77793743     15.68094635      7.17918209   
    80       C          5.64070212     21.10978660      2.75392278   
    81       C          0.22561213     20.35234931      3.51086731   
    82       C          6.77221206     20.92788902      3.55784344   
    83       C          2.80042962     18.34664224      3.28642841   
    84       C          3.06574385     20.88513652      0.74774641   
    85       C          3.43495933     20.20736155      1.90333103   
    86       C          2.43133146     19.50147599      2.60909927   
    87       C          6.92369952     15.84425997      5.79962786   
    88       C          5.93274253     16.54038426      4.11245273   
    89       C          7.62102050     17.53159935      4.80979717   
    90       C          6.48096945     18.68598728      3.01658551   
    91       C          4.55323524     16.68750730      3.94810667   
    92       C          5.09451663     18.79075672      2.85322497   
    93       C          0.77121101     20.45179229      1.19223633   
    94       C          4.11639478     17.88830820      3.34011542   
    95       C          1.74970829     20.93835423      0.29030403   
    96       C          7.15013291     19.62335112      3.88874123   
    97       C          4.72570005     20.09238501      2.44130391   
    98       C          1.14047342     20.03973045      2.49431044   
    99       C          7.78370058     18.91117705      4.95443297   
   100       C          8.44559001     20.66459275      6.61396680   
   101       C          9.12336498     21.03268193      7.76936371   
   102       C          8.71524520     16.98463953      6.95143468   
   103       C          8.87888732     18.36827660      7.05866790   
   104       C          8.39230191     19.34834601      6.15621939   
   105       C         22.55844408     21.15636383      3.32995524   
   106       C         22.85015598     20.61522323      1.08627019   
   107       C         21.54716675     22.55257793      1.31354831   
   108       C         22.18003047     21.48791863      2.02511230   
   109       C          6.09173866      2.35535308     14.48622278   
   110       C          4.95990022      2.53619476     15.29028423   
   111       C          5.25198756      4.78032564     14.74916709   
   112       C          6.63684479      4.67377289     14.58566575   
   113       C          7.61581136      5.57596329     15.07225116   
   114       C          7.00669381      3.37188648     14.17358045   
   115       C          4.58165087      3.84087344     15.62167477   
   116       C         11.50680519      3.11220376     15.24323770   
   117       C          8.40239168      0.90620285      9.42411076   
   118       C         12.63845592      2.30823617     15.06216139   
   119       C          8.93219889      5.11826280     15.01893959   
   120       C          8.66629804      2.57958080     12.48030452   
   121       C          8.29788036      3.25712113     13.63539638   
   122       C          9.30064004      3.96293629     14.34125848   
   123       C         13.48649003      1.05733834     11.66535550   
   124       C         11.79915065      1.75404924     10.67472701   
   125       C         10.64635831      0.61418591      8.88301709   
   126       C         12.34662669      2.84937677     12.81857019   
   127       C         13.64982711      0.91181089     13.04561366   
   128       C         10.41900980      1.91759751     10.82060643   
   129       C         10.96132364      3.01283118     12.92465365   
   130       C          9.98263864      2.52617537     12.02243978   
   131       C          9.70697652      1.28440527      9.75538399   
   132       C         13.01670527      1.97686909     13.75745923   
   133       C         10.59175619      3.42486955     14.22644619   
   134       C         12.78970873      0.06687411      9.97813343   
   135       C         20.66442849      6.61401373      8.44566041   
   136       C         21.03296350      7.76934024      9.12334152   
   137       C         16.98424063      6.95211515      8.71552677   
   138       C         18.36933250      7.05843326      8.87893425   
   139       C         19.34808790      6.15645403      8.39241923   
   140       C          3.11222722     15.24319078     11.50675826   
   141       C          2.30816577     15.06213792     12.63852632   
   142       C          0.90617939      9.42408730      8.40243861   
   143       C          2.57953387     12.48023413      8.66622765   
   144       C          5.11814548     15.01889266      8.93238660   
   145       C          3.96303015     14.34132887      9.30049925   
   146       C          3.25712113     13.63544331      8.29790382   
   147       C          1.75423696     10.67496166     11.79915065   
   148       C          1.05743220     11.66542589     13.48644310   
   149       C          2.84932984     12.81831208     12.34646244   
   150       C          0.61432669      8.88294669     10.64605327   
   151       C          0.91174050     13.04556673     13.64985058   
   152       C          1.91752711     10.82051257     10.41908020   
   153       C          3.01276078     12.92463018     10.96162868   
   154       C          2.52619884     12.02248671      9.98263864   
   155       C          1.97691601     13.75757656     13.01668181   
   156       C          1.28438181      9.75538399      9.70711730   
   157       C          3.42489302     14.22654005     10.59168579   
   158       C          0.06685065      9.97822729     12.78980259   
   159       C         16.31381008      7.89135616      7.84276097   
   160       C         17.82401520      9.37694692      8.97835376   
   161       C         19.95380308     11.95793559     14.84457415   
   162       C         23.23908173      8.62009624      8.22136230   
   163       C         16.69227061      9.19615217      8.17438617   
   164       C         20.13471515     10.82602675     14.04044231   
   165       C         22.71692399     14.79813771     14.31171655   
   166       C         20.39859804      9.15271920     10.98427202   
   167       C         20.03013343      8.47515541      9.82920362   
   168       C         21.56124551     15.16728279     14.98949152   
   169       C         22.37851752     11.11787945     14.58155945   
   170       C         22.15138020      9.81470249     12.64397010   
   171       C         22.27231674     12.50325290     14.74510771   
   172       C         22.69367057      8.71946882     10.53987596   
   173       C         23.17438983     13.48203176     14.25852230   
   174       C         21.71493864      9.20614809     11.44223061   
   175       C         21.43929998     10.44798858     13.70930987   
   176       C         18.73897035      8.36046044      9.29101955   
   177       C         20.97026609     12.87286728     15.15719302   
   178       C         22.32407965      8.30745391      9.23815381   
   179       C          7.84306601     16.31411512      7.89152041   
   180       C          8.22147962     23.23910519      8.62011971   
   181       C          8.97854147     17.82422638      9.37697038   
   182       C         14.84450376     19.95375615     11.95781827   
   183       C          8.17410459     16.69194211      9.19608178   
   184       C         14.04048924     20.13466822     10.82609715   
   185       C         10.98427202     20.39843379      9.15271920   
   186       C         14.31183387     22.71668934     14.79834889   
   187       C          9.82929748     20.03048540      8.47524927   
   188       C         14.98930380     21.56157401     15.16655539   
   189       C         14.58160638     22.37858792     11.11806717   
   190       C         12.64415782     22.15128634      9.81481982   
   191       C         10.53992289     22.69390521      8.71951575   
   192       C         14.74506078     22.27234021     12.50301825   
   193       C         11.44211329     21.71496210      9.20607770   
   194       C         14.25856923     23.17429597     13.48203176   
   195       C         13.70912216     21.43939384     10.44784780   
   196       C          9.23808341     22.32400926      8.30743045   
   197       C          9.29099609     18.73908767      8.36043698   
   198       C         15.15716955     20.97033648     12.87289074   
   199       C         20.71070069     17.37302559     14.08699607   
   200       C         19.90659231     18.50469978     14.26910484   
   201       C         16.85051587     20.17798387     14.53233072   
   202       C         15.69535362     20.85557113     14.16417114   
   203       C         19.57668003     18.88177590     15.57336116   
   204       C         21.02331955     16.45778886     15.10479656   
   205       C          7.17948713      6.77805475     15.68099328   
   206       C          3.51079692      0.22554174     20.35239624   
   207       C          2.75396971      5.64065519     21.10931731   
   208       C          3.55791383      6.77230592     20.92833485   
   209       C          0.74793413      3.06600196     20.88506613   
   210       C          3.28656920      2.80012458     18.34643105   
   211       C          2.60900541      2.43168343     19.50156985   
   212       C          1.90316678      3.43449004     20.20743194   
   213       C          4.80871780      7.62026964     17.53150550   
   214       C          5.79918203      6.92341795     15.84418957   
   215       C          4.11212422      5.93304757     16.54083008   
   216       C          3.01677323      6.48045323     18.68464980   
   217       C          3.94862289      4.55274248     16.68663911   
   218       C          1.19233018      0.77090597     20.45179229   
   219       C          2.85334229      5.09522057     18.79080365   
   220       C          0.29025710      1.74961443     20.93835423   
   221       C          3.33995116      4.11651210     17.88861324   
   222       C          3.88928091      7.15057874     19.62367963   
   223       C          2.49426352      1.14054381     20.03973045   
   224       C          2.44128045      4.72560619     20.09264312   
   225       C          4.95438604      7.78372404     18.91176366   
   226       C         21.15638730      3.33000217     22.55842061   
   227       C         20.61527016      1.08587129     22.85046102   
   228       C         22.55262486      1.31354831     21.54716675   
   229       C         21.48798903      2.02520616     22.17998354   
   230       C          6.61410759      8.44570734     20.66447542   
   231       C          7.76922292      9.12322420     21.03277579   
   232       C          6.95234980      8.71552677     16.98417024   
   233       C          7.05843326      8.87893425     18.36933250   
   234       C          6.15638364      8.39237230     19.34813483   
   235       C          7.89130923      7.84297216     16.31399780   
   236       C          8.61995546      8.22140923     23.23889401   
   237       C         11.95774788     14.84452722     19.95345111   
   238       C          9.37706424      8.97835376     17.82396827   
   239       C         10.82609715     14.04048924     20.13497326   
   240       C          9.19603485      8.17438617     16.69229408   
   241       C          9.15278959     10.98438934     20.39848072   
   242       C         14.79827849     14.31192773     22.71652509   
   243       C         15.16681350     14.98930380     21.56155055   
   244       C          8.47510848      9.82910976     20.03022729   
   245       C         11.11771520     14.58162984     22.37776666   
   246       C          9.81465557     12.64382932     22.15199028   
   247       C          8.71949229     10.53971171     22.69442143   
   248       C         12.50329983     14.74513118     22.27224635   
   249       C          9.20621849     11.44237140     21.71472746   
   250       C         13.48207869     14.25835805     23.17469487   
   251       C         10.44836402     13.70977917     21.43946423   
   252       C          8.30745391      9.23813034     22.32396233   
   253       C         12.87293767     15.15719302     20.97054767   
   254       C          8.36039005      9.29101955     18.73899381   
   255       C         17.37279094     14.08765308     20.71074761   
   256       C         18.50509868     14.26891712     19.90624034   
   257       C         20.17821852     14.53263576     16.85014044   
   258       C         20.85545380     14.16370185     15.69549440   
   259       C         18.88168204     15.57239911     19.57682082   
   260       C         16.45757768     15.10439767     21.02336648   
   261       C          3.32990832     22.55842061     21.15638730   
   262       C          1.08598862     22.85036717     20.61524669   
   263       C          1.31354831     21.54707289     22.55276564   
   264       C          2.02527656     22.18005394     21.48787170   
   265       C         14.08732458     20.71091187     17.37262669   
   266       C         14.26901098     19.90621687     18.50512214   
   267       C         14.53226032     16.85051587     20.17793694   
   268       C         14.16391303     15.69523629     20.85561806   
   269       C         15.57289187     19.57632806     18.88198708   
   270       C         15.10442113     21.02329609     16.45769501   
   271       C         21.71045690     22.40721473     23.39749124   
   272       C         22.40702701     23.39760857     21.71055076   
   273       C         23.39753817     21.71064461     22.40695662   
   274       C         18.65468550     19.35353169     17.66462017   
   275       C         17.66445592     18.65550677     19.35306239   
   276       C         19.35228806     17.66429167     18.65649228   
   277       C         18.21284709     16.51281335     20.44728709   
   278       C         20.44780331     18.21345717     16.51074847   
   279       C         16.51264910     20.44747480     18.21242472   
   280       C         16.28645036     18.50953349     19.51630562   
   281       C         19.51684530     16.28659114     18.50866530   
   282       C         18.50951002     19.51635255     16.28668500   
   283       C         16.82843569     16.40546281     20.61135157   
   284       C         20.61144543     16.82714513     16.40579131   
   285       C         16.40574438     20.61123425     16.82883458   
   286       C         15.84848360     17.30892030     20.12434380   
   287       C         20.12429687     15.84846013     17.30899069   
   288       C         17.30868565     20.12446112     15.84829588   
   289       H         14.14685427      6.32065930      1.34388804   
   290       H          9.76610731      7.52716210      1.45658851   
   291       H         15.63228077      4.40953803      1.66098864   
   292       H         22.12068850      2.41455427      5.41164070   
   293       H         20.01300427      4.52223850      0.45450930   
   294       H         21.80361136      3.89998077      7.32276197   
   295       H         21.37702493      0.18154561      3.85105708   
   296       H         17.77999561      3.77857493      2.01506945   
   297       H          1.34384111     14.14683080      6.32068277   
   298       H          1.66098864     15.63225731      4.40953803   
   299       H          1.45661197      9.76613077      7.52711518   
   300       H         11.91384561      7.88124292      2.08757507   
   301       H         15.51087493      9.71720708      5.68458093   
   302       H         23.01009070      8.28070427      7.21010843   
   303       H         16.25451504     11.27779070      3.45159573   
   304       H         15.93750829     13.18893544      1.96616923   
   305       H          5.41166416     22.12050078      2.41460120   
   306       H          0.45450930     20.01300427      4.52221504   
   307       H          7.32285583     21.80379908      3.90002770   
   308       H          2.01495213     17.77992522      3.77864533   
   309       H          3.85110401     21.37702493      0.18154561   
   310       H          7.95374853     21.44943669      6.04771907   
   311       H         22.00798803     21.49843077      4.20516136   
   312       H          6.32065930      1.34391150     14.14685427   
   313       H          4.40953803      1.66101210     15.63225731   
   314       H          7.52713864      1.45661197      9.76613077   
   315       H          7.88121945      2.08755160     11.91384561   
   316       H          9.71720708      5.68458093     15.51087493   
   317       H         21.44950708      6.04769561      7.95372507   
   318       H          2.08757507     11.91384561      7.88124292   
   319       H          5.68458093     15.51085147      9.71716015   
   320       H         18.05295930     10.38838850      9.31774573   
   321       H         18.94236150     12.18680930     15.18389573   
   322       H         16.14183803     10.07131136      7.83231923   
   323       H         19.25943864     10.27568803     13.69846923   
   324       H         19.61351945      9.64474840     11.55075439   
   325       H         23.28303093     15.58335708     13.81989853   
   326       H          3.45159573     16.25451504     11.27779070   
   327       H          7.21006150     23.01009070      8.28070427   
   328       H          1.96616923     15.93748482     13.18891197   
   329       H         15.18389573     18.94238496     12.18680930   
   330       H          9.31772227     18.05293584     10.38834157   
   331       H         13.69846923     19.25943864     10.27568803   
   332       H          7.83234269     16.14186149     10.07126443   
   333       H         11.55075439     19.61356638      9.64472493   
   334       H         13.81987507     23.28303093     15.58333362   
   335       H         21.04997534     17.14396416     13.07644615   
   336       H         19.56459576     19.05513237     13.39310092   
   337       H         17.41688093     19.68604853     13.74743985   
   338       H          2.41455427      5.41164070     22.12068850   
   339       H          4.52223850      0.45450930     20.01300427   
   340       H          3.89998077      7.32276197     21.80363482   
   341       H          0.18154561      3.85105708     21.37702493   
   342       H          3.77857493      2.01506945     17.77999561   
   343       H          8.28072773      7.21013189     23.01011416   
   344       H         11.27779070      3.45159573     16.25451504   
   345       H         13.18891197      1.96616923     15.93748482   
   346       H         21.49840731      4.20513790     22.00798803   
   347       H          6.04769561      7.95372507     21.44950708   
   348       H         10.38836503      9.31774573     18.05295930   
   349       H         12.18680930     15.18387227     18.94247882   
   350       H         10.07133482      7.83231923     16.14183803   
   351       H         10.27564110     13.69846923     19.25934478   
   352       H          9.64470147     11.55073093     19.61358985   
   353       H         15.58340401     13.81985160     23.28307785   
   354       H         17.14391723     13.07623496     21.05004573   
   355       H         19.05508544     13.39326518     19.56464269   
   356       H         19.68597814     13.74729906     17.41697478   
   357       H          4.20516136     22.00798803     21.49843077   
   358       H         13.07639922     21.04999880     17.14396416   
   359       H         13.39324171     19.56461923     19.05508544   
   360       H         13.74746331     17.41688093     19.68604853   
   361      Tv         23.46460000      0.00000000      0.00000000   
   362      Tv          0.00000000     23.46460000      0.00000000   
   363      Tv          0.00000000      0.00000000     23.46460000   

                             CARTESIAN COORDINATES

   1    N       15.519744551     5.041017341     5.833839246
   2    N       17.630737290     3.787444551     6.691259194
   3    N        5.833557671    15.519861874     5.040618443
   4    N       11.764751542    12.557573447     2.078635056
   5    N        9.653477228    11.699848458     0.824898013
   6    N        6.691048013    17.630385321     3.787561874
   7    N        7.945066631    16.773716239     5.898695400
   8    N       22.639514270    21.385941480     0.032216896
   9    N        5.041064270     5.833768852    15.519721086
  10    N       12.557385730     2.078681985    11.764540360
  11    N       11.699918852     0.825132659     9.653594551
  12    N       16.773340806     5.898484219     7.944855449
  13    N        0.825038801     9.653594551    11.700036175
  14    N        2.078728914    11.764657683    12.557362265
  15    N       23.432265781    10.907167341    13.810958520
  16    N       13.811052379    23.432289246    10.907284664
  17    N        3.787468015     6.691306124    17.630737290
  18    N       21.385847621     0.032357683    22.639537735
  19    N        5.898413825     7.944855449    16.773434664
  20    N       10.907378522    13.810981985    23.432476963
  21    N        0.032357683    22.639396947    21.385918015
  22    N       19.677108520    18.423348013    17.566514679
  23    N       17.565904600    19.677390095    18.423089902
  24    N       18.423887699    17.565763812    19.677085056
  25    C       14.486269708     6.091644806     2.355353083
  26    C       15.290190369     4.959994077     2.536147826
  27    C       14.749096693     5.251893701     4.780137918
  28    C       14.585665754     6.637079433     4.673890209
  29    C       15.072180770     7.615740970     5.575845969
  30    C       14.173556984     7.006717277     3.371839555
  31    C       15.621792096     4.581557008     3.840943839
  32    C       15.681016746     7.179745237     6.778148608
  33    C       20.352372779     3.510796917     0.225565200
  34    C       21.109293846     2.753946244     5.640631729
  35    C       20.928405244     3.557890369     6.772282458
  36    C       20.885066128     0.747910660     3.066001959
  37    C       18.346431054     3.286569199     2.800148041
  38    C       19.501569848     2.609005409     2.431730356
  39    C       20.207431945     1.903166777     3.434443108
  40    C       16.540900478     4.112124221     5.933188362
  41    C       17.531364709     4.808694336     7.620246173
  42    C       15.844400756     5.799088173     6.923699522
  43    C       18.684532476     3.016749764     6.480406299
  44    C       16.686521786     3.948669817     4.552601692
  45    C       20.451815754     1.192330184     0.770765181
  46    C       18.790756720     2.853342289     5.095173638
  47    C       20.938354235     0.290280567     1.749661364
  48    C       17.888707102     3.339904235     4.116535566
  49    C       19.623609232     3.889539025     7.150766456
  50    C       20.039753913     2.494286980     1.140520348
  51    C       20.092690051     2.441303913     4.725653117
  52    C       18.912045237     4.954151392     7.783583254
  53    C        2.355470406    14.486269708     6.091668271
  54    C        2.536382472    15.290425015     4.959782896
  55    C        4.780442958    14.749307874     5.251870237
  56    C        4.673444382    14.585595360     6.636680535
  57    C        5.576221402    15.072345022     7.615811364
  58    C        3.372003808    14.173556984     7.006881529
  59    C        3.840357224    15.620970835     4.582190553
  60    C       15.243167310    11.506758265     3.112227221
  61    C       15.061973669    12.638643640     2.308071914
  62    C        9.424321944     8.402485543     0.906460963
  63    C       12.480351448     8.666180718     2.579580801
  64    C       15.018939593     8.932151959     5.118262804
  65    C       14.341328874     9.300640037     3.962983223
  66    C       13.635396383     8.297880356     3.257121126
  67    C       11.665754394    13.486349244     1.057572987
  68    C       10.674844336    11.798751747     1.754236961
  69    C       12.818382476    12.346626693     2.849189055
  70    C        8.883157874    10.646569493     0.614068582
  71    C       10.820817613    10.419526024     1.917667900
  72    C       13.045003582    13.650226010     0.911106953
  73    C       12.924935224    10.961699071     3.012854640
[...]
  293          H           0.160185        0.8398     0.83981
  294          H           0.161434        0.8386     0.83857
  295          H           0.165790        0.8342     0.83421
  296          H           0.164940        0.8351     0.83506
  297          H           0.160243        0.8398     0.83976
  298          H           0.162003        0.8380     0.83800
  299          H           0.161363        0.8386     0.83864
  300          H           0.165216        0.8348     0.83478
  301          H           0.165491        0.8345     0.83451
  302          H           0.160349        0.8397     0.83965
  303          H           0.159867        0.8401     0.84013
  304          H           0.161419        0.8386     0.83858
  305          H           0.160245        0.8398     0.83976
  306          H           0.159495        0.8405     0.84051
  307          H           0.162155        0.8378     0.83785
  308          H           0.165541        0.8345     0.83446
  309          H           0.165555        0.8344     0.83444
  310          H           0.166224        0.8338     0.83378
  311          H           0.162035        0.8380     0.83796
  312          H           0.159432        0.8406     0.84057
  313          H           0.162226        0.8378     0.83777
  314          H           0.162230        0.8378     0.83777
  315          H           0.165989        0.8340     0.83401
  316          H           0.165144        0.8349     0.83486
  317          H           0.164985        0.8350     0.83502
  318          H           0.165140        0.8349     0.83486
  319          H           0.165607        0.8344     0.83439
  320          H           0.159247        0.8408     0.84075
  321          H           0.159767        0.8402     0.84023
  322          H           0.161728        0.8383     0.83827
  323          H           0.162108        0.8379     0.83789
  324          H           0.165928        0.8341     0.83407
  325          H           0.165354        0.8346     0.83465
  326          H           0.159546        0.8405     0.84045
  327          H           0.159461        0.8405     0.84054
  328          H           0.161893        0.8381     0.83811
  329          H           0.160555        0.8394     0.83944
  330          H           0.160384        0.8396     0.83962
  331          H           0.161257        0.8387     0.83874
  332          H           0.161891        0.8381     0.83811
  333          H           0.164671        0.8353     0.83533
  334          H           0.166221        0.8338     0.83378
  335          H           0.159867        0.8401     0.84013
  336          H           0.161596        0.8384     0.83840
  337          H           0.164679        0.8353     0.83532
  338          H           0.160415        0.8396     0.83958
  339          H           0.159229        0.8408     0.84077
  340          H           0.161348        0.8387     0.83865
  341          H           0.164434        0.8356     0.83557
  342          H           0.166385        0.8336     0.83361
  343          H           0.160021        0.8400     0.83998
  344          H           0.160264        0.8397     0.83974
  345          H           0.162072        0.8379     0.83793
  346          H           0.161144        0.8389     0.83886
  347          H           0.164678        0.8353     0.83532
  348          H           0.159608        0.8404     0.84039
  349          H           0.159257        0.8407     0.84074
  350          H           0.161582        0.8384     0.83842
  351          H           0.162145        0.8379     0.83786
  352          H           0.166117        0.8339     0.83388
  353          H           0.164754        0.8352     0.83525
  354          H           0.160248        0.8398     0.83975
  355          H           0.161811        0.8382     0.83819
  356          H           0.165483        0.8345     0.83452
  357          H           0.161693        0.8383     0.83831
  358          H           0.159144        0.8409     0.84086
  359          H           0.162413        0.8376     0.83759
  360          H           0.166223        0.8338     0.83378


          ATOMIC ORBITAL ELECTRON POPULATIONS

     Atom    s        px        py        pz   
    1  N   1.48558   1.24034   1.19210   1.15598
    2  N   1.48553   1.15568   1.24007   1.19171
    3  N   1.48540   1.15602   1.24116   1.19268
    4  N   1.48564   1.15598   1.19267   1.24108
    5  N   1.48553   1.24132   1.15672   1.19294
    6  N   1.48697   1.19265   1.15672   1.24176
    7  N   1.48516   1.24079   1.19266   1.15634
    8  N   1.48575   1.19191   1.24054   1.15636
    9  N   1.48534   1.19159   1.15623   1.24047
   10  N   1.48597   1.19238   1.24109   1.15663
   11  N   1.48534   1.15562   1.19150   1.24027
   12  N   1.48541   1.19154   1.15590   1.24012
   13  N   1.48590   1.19253   1.24068   1.15616
   14  N   1.48547   1.24022   1.15572   1.19182
   15  N   1.48564   1.15637   1.19220   1.24102
   16  N   1.48571   1.24032   1.15586   1.19266
   17  N   1.48594   1.24082   1.19290   1.15628
   18  N   1.48557   1.24041   1.15584   1.19253
   19  N   1.48560   1.15552   1.24019   1.19173
   20  N   1.48614   1.19197   1.24120   1.15646
   21  N   1.48529   1.15546   1.19118   1.23981
   22  N   1.48708   1.24217   1.19339   1.15662
   23  N   1.48536   1.15674   1.24180   1.19232
   24  N   1.48544   1.19349   1.15704   1.24216
   25  C   1.08083   1.02575   0.99262   1.07667
   26  C   1.08236   0.99423   0.99002   1.02816
   27  C   1.11885   0.97122   0.97675   0.77282
   28  C   1.05703   1.04193   0.95017   1.01078
   29  C   1.04612   0.98846   0.97545   0.96116
   30  C   1.05315   0.98399   0.98032   0.96393
   31  C   1.05462   0.93949   1.09605   0.98613
   32  C   1.05129   1.07659   0.94800   0.98779
   33  C   1.08052   1.02925   1.07747   0.99414
   34  C   1.08097   1.07618   1.02375   0.99161
   35  C   1.08202   1.02826   0.99645   0.99145
   36  C   1.07079   1.05444   1.02828   1.02761
   37  C   1.07190   1.02450   1.04317   1.02645
   38  C   1.04902   0.97809   1.01553   0.97128
   39  C   1.05012   1.00458   0.97186   0.96946
   40  C   1.00320   0.92545   1.07816   0.97098
   41  C   1.00304   0.97106   0.92573   1.07903
   42  C   1.00349   1.07647   0.97059   0.92429
   43  C   1.11894   0.77291   0.97240   0.97737
   44  C   1.05172   0.98616   1.07193   0.94764
   45  C   1.05653   1.04768   1.01227   0.95051
   46  C   1.05729   1.00978   1.03753   0.94978
   47  C   1.04663   0.98366   0.95925   0.97520
   48  C   1.04543   0.96323   0.99504   0.97607
   49  C   1.05468   0.98607   0.93888   1.09484
   50  C   1.05372   0.97767   0.96287   0.97874
   51  C   1.05277   0.96466   0.98868   0.98154
   52  C   1.05159   0.94762   0.98629   1.07266
   53  C   1.08093   1.07713   1.02661   0.99300
   54  C   1.08252   1.02837   0.99276   0.98906
   55  C   1.11841   0.77309   0.96993   0.97639
   56  C   1.05685   1.01142   1.04445   0.95025
   57  C   1.04649   0.96038   0.98732   0.97561
   58  C   1.05342   0.96340   0.98071   0.97958
   59  C   1.05483   0.98603   0.93936   1.09595
   60  C   1.08087   1.07680   0.99274   1.02645
   61  C   1.08233   1.02813   0.98964   0.99377
   62  C   1.08276   0.99187   1.02814   0.98841
   63  C   1.07135   1.02638   1.02679   1.04824
   64  C   1.07137   1.04903   1.02720   1.02629
   65  C   1.04959   1.00982   0.97031   0.97498
   66  C   1.04951   0.97494   0.97047   1.01021
   67  C   1.00268   0.97105   1.07912   0.92576
   68  C   1.00356   0.92444   0.97061   1.07610
   69  C   1.11850   0.77290   0.97658   0.97014
   70  C   1.11820   0.96927   0.77318   0.97619
   71  C   1.05178   0.98652   0.94806   1.07215
   72  C   1.05191   0.94754   1.06999   0.98536
   73  C   1.05699   1.01100   0.95000   1.04234
   74  C   1.04599   0.96145   0.97582   0.99067
   75  C   1.05456   0.98621   1.09741   0.94005
   76  C   1.05462   0.93994   0.98608   1.09702
   77  C   1.05323   0.96376   0.98021   0.98319
   78  C   1.00369   1.07438   0.92303   0.97018
   79  C   1.05175   0.98676   1.07233   0.94816
   80  C   1.08107   0.99228   1.07691   1.02517
   81  C   1.08110   0.99168   1.02336   1.07624
   82  C   1.08250   0.99000   1.02827   0.99400
   83  C   1.07130   1.02695   1.02691   1.04919
   84  C   1.07169   1.02716   1.04676   1.02538
   85  C   1.04958   0.97048   1.01148   0.97599
   86  C   1.04977   0.97022   0.97376   1.00816
   87  C   1.00364   0.92455   1.07658   0.97060
   88  C   1.00305   0.97054   0.92409   1.07643
   89  C   1.00361   1.07508   0.97041   0.92382
   90  C   1.11947   0.97590   0.77141   0.96937
   91  C   1.05177   0.94784   0.98689   1.07348
   92  C   1.05703   0.94977   1.01110   1.04326
   93  C   1.05736   0.94998   1.03898   1.00991
   94  C   1.04574   0.97580   0.96123   0.98923
   95  C   1.04587   0.97551   0.98998   0.96202
   96  C   1.05441   1.09521   0.98652   0.93866
   97  C   1.05337   0.98016   0.96352   0.98240
   98  C   1.05275   0.98118   0.98724   0.96455
   99  C   1.05150   1.07581   0.94831   0.98796
  100  C   1.07069   1.05591   1.02783   1.02874
  101  C   1.05041   1.00164   0.96910   0.97033
  102  C   1.11800   0.96853   0.97603   0.77338
  103  C   1.05658   1.04812   0.95079   1.01240
  104  C   1.04714   0.98180   0.97499   0.95881
  105  C   1.08219   0.99124   0.99607   1.02861
  106  C   1.11900   0.97717   0.97280   0.77290
  107  C   1.05133   1.07760   0.98840   0.94821
  108  C   1.05492   1.09244   0.93780   0.98588
  109  C   1.08133   0.99064   1.07600   1.02128
  110  C   1.08188   0.99252   1.02882   0.99811
  111  C   1.11868   0.97790   0.77340   0.97371
  112  C   1.05748   0.94975   1.00929   1.03611
  113  C   1.04559   0.97591   0.96336   0.99463
  114  C   1.05261   0.98195   0.96491   0.99032
  115  C   1.05520   1.09036   0.98564   0.93670
  116  C   1.08100   0.99275   1.02593   1.07720
  117  C   1.08178   1.02883   0.99272   0.99835
  118  C   1.08264   0.98939   0.99313   1.02827
  119  C   1.07207   1.02654   1.02425   1.04267
  120  C   1.07102   1.02758   1.05301   1.02787
  121  C   1.05007   0.96955   1.00467   0.97193
  122  C   1.04908   0.97118   0.97780   1.01501
  123  C   1.00378   1.07452   0.92355   0.97021
  124  C   1.00345   0.97038   1.07584   0.92355
  125  C   1.11863   0.77342   0.97795   0.97400
  126  C   1.11895   0.97615   0.96965   0.77232
  127  C   1.05156   1.07633   0.98823   0.94834
  128  C   1.05114   0.94816   1.07843   0.98858
  129  C   1.05680   0.95025   1.04566   1.01163
  130  C   1.04655   0.97514   0.98416   0.95969
  131  C   1.05517   0.98567   1.09093   0.93702
  132  C   1.05467   1.09498   0.93870   0.98623
  133  C   1.05353   0.97944   0.98009   0.96319
  134  C   1.00279   0.92688   0.97132   1.08057
  135  C   1.07208   1.02649   1.02398   1.04210
  136  C   1.04897   0.97134   0.97861   1.01636
  137  C   1.11884   0.97779   0.77323   0.97364
  138  C   1.05747   0.94975   1.00926   1.03577
  139  C   1.04542   0.97598   0.96360   0.99545
  140  C   1.08105   1.02380   1.07619   0.99176
  141  C   1.08213   0.99585   1.02852   0.99109
  142  C   1.08285   0.98801   0.99107   1.02773
  143  C   1.07184   1.04426   1.02479   1.02659
  144  C   1.07115   1.02738   1.05119   1.02711
  145  C   1.04992   0.97285   1.00623   0.96995
  146  C   1.04919   1.01338   0.97704   0.97101
  147  C   1.00304   1.07886   0.92598   0.97098
  148  C   1.00327   0.92452   0.97071   1.07730
  149  C   1.11860   0.97254   0.77323   0.97727
  150  C   1.11889   0.97565   0.96814   0.77219
  151  C   1.05146   0.98710   0.94787   1.07465
  152  C   1.05199   1.06965   0.98552   0.94775
  153  C   1.05731   1.03779   1.00982   0.95003
  154  C   1.04570   0.99391   0.96299   0.97604
  155  C   1.05484   0.93849   0.98589   1.09385
  156  C   1.05423   1.09921   0.94080   0.98657
  157  C   1.05286   0.98785   0.96459   0.98130
  158  C   1.00365   0.97035   1.07490   0.92357
  159  C   1.05497   1.09227   0.98579   0.93773
  160  C   1.08114   0.99100   1.07592   1.02218
  161  C   1.08112   1.07653   0.99175   1.02375
  162  C   1.08066   0.99386   1.02867   1.07753
  163  C   1.08187   0.99229   1.02858   0.99777
  164  C   1.08224   1.02854   0.99093   0.99563
  165  C   1.07164   1.02567   1.02688   1.04676
  166  C   1.07079   1.02759   1.05464   1.02849
  167  C   1.05019   0.96938   1.00358   0.97126
  168  C   1.04961   0.97572   0.97064   1.01123
  169  C   1.11881   0.77292   0.97700   0.97172
  170  C   1.05140   0.94819   1.07696   0.98826
  171  C   1.05722   1.01027   0.94989   1.04018
  172  C   1.05657   0.95036   1.04797   1.01233
  173  C   1.04581   0.96191   0.97572   0.99084
  174  C   1.04663   0.97522   0.98342   0.95921
  175  C   1.05492   0.98593   1.09307   0.93795
  176  C   1.05256   0.98202   0.96501   0.99067
  177  C   1.05296   0.96423   0.98089   0.98592
  178  C   1.05376   0.97873   0.97732   0.96275
  179  C   1.05456   0.94011   1.09744   0.98612
  180  C   1.08130   1.07581   0.99051   1.02106
  181  C   1.08080   1.02844   0.99390   1.07755
  182  C   1.08041   1.03104   1.07793   0.99501
  183  C   1.08302   0.99070   0.98769   1.02800
  184  C   1.08319   0.98863   1.02750   0.98643
  185  C   1.07228   1.02331   1.02597   1.03931
  186  C   1.07038   1.05800   1.02946   1.02798
  187  C   1.04869   0.97952   0.97181   1.01793
  188  C   1.05045   1.00036   0.96959   0.96879
  189  C   1.11869   0.96704   0.77230   0.97510
  190  C   1.05227   0.98431   0.94745   1.06629
  191  C   1.05757   1.00885   0.94965   1.03380
  192  C   1.05635   1.05070   1.01305   0.95078
  193  C   1.04519   0.96466   0.97654   0.99928
  194  C   1.04705   0.98025   0.95818   0.97503
  195  C   1.05404   0.94204   0.98668   1.10156
  196  C   1.05253   0.96521   0.98242   0.99220
  197  C   1.05383   0.97673   0.97850   0.96274
  198  C   1.05413   0.97387   0.96224   0.97774
  199  C   1.08091   1.02708   0.99307   1.07666
  200  C   1.08248   0.99293   0.98918   1.02815
  201  C   1.07227   1.02297   1.03853   1.02606
  202  C   1.04862   0.98032   1.01957   0.97201
  203  C   1.05425   0.94034   1.09825   0.98655
  204  C   1.05327   0.98222   0.98007   0.96377
  205  C   1.05155   0.94765   0.98639   1.07276
  206  C   1.08122   1.07568   0.99032   1.02096
  207  C   1.08049   1.03052   0.99483   1.07781
  208  C   1.08312   0.98917   0.98678   1.02768
  209  C   1.07250   1.02271   1.02575   1.03743
  210  C   1.07037   1.05913   1.02821   1.02976
  211  C   1.05061   0.99949   0.96863   0.96915
  212  C   1.04855   0.98077   0.97215   1.02038
  213  C   1.00303   0.92606   1.07884   0.97115
  214  C   1.00295   0.97108   0.92573   1.07929
  215  C   1.00392   1.07378   0.97002   0.92273
  216  C   1.11886   0.96753   0.97521   0.77219
  217  C   1.05104   1.08050   0.94851   0.98949
  218  C   1.05760   1.00863   0.94941   1.03282
  219  C   1.05638   1.05099   0.95076   1.01300
  220  C   1.04486   0.96528   0.97666   1.00124
  221  C   1.04718   0.97828   0.97471   0.95765
  222  C   1.05419   0.94153   1.10044   0.98656
  223  C   1.05235   0.96541   0.98280   0.99365
  224  C   1.05400   0.97404   0.97784   0.96233
  225  C   1.05221   0.98491   1.06789   0.94751
  226  C   1.08288   0.99075   1.02762   0.98776
  227  C   1.11877   0.96840   0.77248   0.97578
  228  C   1.05220   0.98438   0.94729   1.06675
  229  C   1.05421   0.94139   0.98650   1.10014
  230  C   1.07198   1.02425   1.04185   1.02612
  231  C   1.04890   0.97834   1.01614   0.97147
  232  C   1.11888   0.77286   0.97219   0.97732
  233  C   1.05731   1.00970   1.03691   0.94969
  234  C   1.04524   0.96379   0.99726   0.97645
  235  C   1.05467   0.98612   0.93879   1.09483
  236  C   1.08084   1.02781   1.07721   0.99357
  237  C   1.08142   0.99020   1.02065   1.07566
  238  C   1.08101   1.07622   1.02349   0.99144
  239  C   1.08165   0.99320   0.99913   1.02886
  240  C   1.08201   1.02826   0.99651   0.99151
  241  C   1.07076   1.05498   1.02826   1.02788
  242  C   1.07224   1.02608   1.03950   1.02332
  243  C   1.04861   0.97178   1.01841   0.97970
  244  C   1.05020   1.00376   0.97154   0.96932
  245  C   1.11887   0.97780   0.97368   0.77284
  246  C   1.05103   1.07939   0.98893   0.94847
  247  C   1.05676   1.04674   1.01199   0.95057
  248  C   1.05774   0.94936   1.03373   1.00880
  249  C   1.04694   0.98220   0.95904   0.97481
  250  C   1.04497   0.97632   0.99869   0.96460
  251  C   1.05501   1.09075   0.93677   0.98582
  252  C   1.05358   0.97871   0.96315   0.97902
  253  C   1.05250   0.98260   0.99271   0.96525
  254  C   1.05283   0.96460   0.98899   0.98163
  255  C   1.08096   0.99362   1.07747   1.02819
  256  C   1.08266   0.98812   1.02837   0.99156
  257  C   1.07109   1.04991   1.02714   1.02687
  258  C   1.04965   1.00854   0.97014   0.97414
  259  C   1.05480   1.09703   0.98605   0.93987
  260  C   1.05366   0.97860   0.96286   0.97686
  261  C   1.08163   1.02860   0.99317   0.99911
  262  C   1.11885   0.77325   0.97813   0.97415
  263  C   1.05126   0.94789   1.07648   0.98758
  264  C   1.05497   0.98583   1.09192   0.93752
  265  C   1.08166   1.07548   1.01981   0.98976
  266  C   1.08159   1.02918   0.99986   0.99348
  267  C   1.07055   1.02803   1.02907   1.05709
  268  C   1.05041   0.96894   0.97014   1.00145
  269  C   1.05537   0.98536   0.93619   1.08923
  270  C   1.05240   0.96557   0.99374   0.98287
  271  C   1.00386   1.07455   0.92340   0.97034
  272  C   1.00280   0.92705   0.97143   1.08076
  273  C   1.00311   0.97069   1.07788   0.92480
  274  C   1.00288   0.92526   1.07801   0.97092
  275  C   1.00402   0.96979   0.92215   1.07291
  276  C   1.00326   1.07440   0.97005   0.92338
  277  C   1.11779   0.97590   0.77331   0.96845
  278  C   1.11889   0.96914   0.97561   0.77174
  279  C   1.11772   0.77412   0.97386   0.97832
  280  C   1.05089   0.94883   0.98945   1.08062
  281  C   1.05182   1.07324   0.94835   0.98677
  282  C   1.05186   0.98511   1.06933   0.94781
  283  C   1.05679   0.95046   1.01235   1.04841
  284  C   1.05718   1.04291   0.94995   1.01110
  285  C   1.05780   1.00864   1.03262   0.94961
  286  C   1.04717   0.97465   0.95822   0.98028
  287  C   1.04584   0.98889   0.97568   0.96112
  288  C   1.04520   0.96475   0.99962   0.97618
  289  H   0.84032
  290  H   0.83829
  291  H   0.83852
  292  H   0.84059
  293  H   0.83981
  294  H   0.83857
  295  H   0.83421
  296  H   0.83506
  297  H   0.83976
  298  H   0.83800
  299  H   0.83864
  300  H   0.83478
  301  H   0.83451
  302  H   0.83965
  303  H   0.84013
  304  H   0.83858
  305  H   0.83976
  306  H   0.84051
  307  H   0.83785
  308  H   0.83446
  309  H   0.83444
  310  H   0.83378
  311  H   0.83796
  312  H   0.84057
  313  H   0.83777
  314  H   0.83777
  315  H   0.83401
  316  H   0.83486
  317  H   0.83502
  318  H   0.83486
  319  H   0.83439
  320  H   0.84075
  321  H   0.84023
  322  H   0.83827
  323  H   0.83789
  324  H   0.83407
  325  H   0.83465
  326  H   0.84045
  327  H   0.84054
  328  H   0.83811
  329  H   0.83944
  330  H   0.83962
  331  H   0.83874
  332  H   0.83811
  333  H   0.83533
  334  H   0.83378
  335  H   0.84013
  336  H   0.83840
  337  H   0.83532
  338  H   0.83958
  339  H   0.84077
  340  H   0.83865
  341  H   0.83557
  342  H   0.83361
  343  H   0.83998
  344  H   0.83974
  345  H   0.83793
  346  H   0.83886
  347  H   0.83532
  348  H   0.84039
  349  H   0.84074
  350  H   0.83842
  351  H   0.83786
  352  H   0.83388
  353  H   0.83525
  354  H   0.83975
  355  H   0.83819
  356  H   0.83452
  357  H   0.83831
  358  H   0.84086
  359  H   0.83759
  360  H   0.83378

 **********************
 *                    *
 * JOB ENDED NORMALLY *
 *                    *
 **********************



 TOTAL JOB TIME:           326.43 SECONDS

 == MOPAC DONE ==
