# LAMMPS data file written by Ovito Basic 3.0.0-dev791
228 atoms
2 atom types
0.0 14.8063440323 xlo xhi
0.0 12.8226699829 ylo yhi
0.0 17.3700752258 zlo zhi

Atoms  # atomic

1 1 11.104757309 12.110298157 15.198814392
2 1 11.104757309 12.110298157 6.513777733
3 1 11.104757309 7.836075306 15.198814392
4 1 11.104757309 7.836075306 6.513777733
5 1 11.104757309 3.561851501 15.198814392
6 1 11.104757309 3.561851501 6.513777733
7 1 6.169310093 12.110298157 15.198814392
8 1 6.169310093 7.836075306 15.198814392
9 1 6.169310093 3.561851501 15.198814392
10 1 1.233861923 12.110298157 15.198814392
11 1 1.233861923 12.110298157 6.513777733
12 1 1.233861923 7.836075306 15.198814392
13 1 1.233861923 7.836075306 6.513777733
14 1 1.233861923 3.561851501 15.198814392
15 1 1.233861923 3.561851501 6.513777733
16 1 13.572481155 12.110298157 15.198814392
17 1 13.572481155 12.110298157 6.513777733
18 1 13.572481155 7.836075306 15.198814392
19 1 13.572481155 7.836075306 6.513777733
20 1 13.572481155 3.561851501 15.198814392
21 1 13.572481155 3.561851501 6.513777733
22 1 8.637033463 12.110298157 15.198814392
23 1 8.637033463 7.836075306 15.198814392
24 1 8.637033463 3.561851501 15.198814392
25 1 3.70158577 12.110298157 15.198814392
26 1 3.70158577 12.110298157 6.513777733
27 1 3.70158577 7.836075306 15.198814392
28 1 3.70158577 7.836075306 6.513777733
29 1 3.70158577 3.561851501 15.198814392
30 1 3.70158577 3.561851501 6.513777733
31 1 12.338620186 9.9731884 15.198814392
32 1 12.338620186 9.9731884 6.513777733
33 1 12.338620186 5.698965073 15.198814392
34 1 12.338620186 5.698965073 6.513777733
35 1 12.338620186 1.424740911 15.198814392
36 1 12.338620186 1.424740911 6.513777733
37 1 7.403171539 9.9731884 15.198814392
38 1 7.403171539 5.698965073 15.198814392
39 1 7.403171539 1.424740911 15.198814392
40 1 2.467723846 9.9731884 15.198814392
41 1 2.467723846 9.9731884 6.513777733
42 1 2.467723846 5.698965073 15.198814392
43 1 2.467723846 5.698965073 6.513777733
44 1 2.467723846 1.424740911 15.198814392
45 1 2.467723846 1.424740911 6.513777733
46 1 9.870895386 9.9731884 15.198814392
47 1 9.870895386 5.698965073 15.198814392
48 1 9.870895386 1.424740911 15.198814392
49 1 4.935447693 9.9731884 15.198814392
50 1 4.935447693 5.698965073 15.198814392
51 1 4.935447693 1.424740911 15.198814392
52 1 0.0 9.9731884 15.198814392
53 1 0.0 9.9731884 6.513777733
54 1 0.0 5.698965073 15.198814392
55 1 0.0 5.698965073 6.513777733
56 1 0.0 1.424740911 15.198814392
57 1 0.0 1.424740911 6.513777733
58 1 12.338620186 11.397928238 10.856295586
59 1 12.338620186 11.397928238 2.171258688
60 1 12.338620186 7.12370491 10.856295586
61 1 12.338620186 7.12370491 2.171258688
62 1 12.338620186 2.849481821 10.856295586
63 1 12.338620186 2.849481821 2.171258688
64 1 7.403171539 11.397928238 2.171258688
65 1 7.403171539 7.12370491 2.171258688
66 1 7.403171539 2.849481821 2.171258688
67 1 2.467723846 11.397928238 10.856295586
68 1 2.467723846 11.397928238 2.171258688
69 1 2.467723846 7.12370491 10.856295586
70 1 2.467723846 7.12370491 2.171258688
71 1 2.467723846 2.849481821 10.856295586
72 1 2.467723846 2.849481821 2.171258688
73 1 9.870895386 11.397928238 2.171258688
74 1 9.870895386 7.12370491 2.171258688
75 1 9.870895386 2.849481821 2.171258688
76 1 4.935447693 11.397928238 2.171258688
77 1 4.935447693 7.12370491 2.171258688
78 1 4.935447693 2.849481821 2.171258688
79 1 0.0 11.397928238 10.856295586
80 1 0.0 11.397928238 2.171258688
81 1 0.0 7.12370491 10.856295586
82 1 0.0 7.12370491 2.171258688
83 1 0.0 2.849481821 10.856295586
84 1 0.0 2.849481821 2.171258688
85 1 13.572481155 9.260816574 10.856295586
86 1 13.572481155 9.260816574 2.171258688
87 1 13.572481155 4.9865942 10.856295586
88 1 13.572481155 4.9865942 2.171258688
89 1 13.572481155 0.712370932 10.856295586
90 1 13.572481155 0.712370932 2.171258688
91 1 8.637033463 9.260816574 2.171258688
92 1 8.637033463 4.9865942 2.171258688
93 1 8.637033463 0.712370932 2.171258688
94 1 3.70158577 9.260816574 10.856295586
95 1 3.70158577 9.260816574 2.171258688
96 1 3.70158577 4.9865942 10.856295586
97 1 3.70158577 4.9865942 2.171258688
98 1 3.70158577 0.712370932 10.856295586
99 1 3.70158577 0.712370932 2.171258688
100 1 11.104757309 9.260816574 10.856295586
101 1 11.104757309 9.260816574 2.171258688
102 1 11.104757309 4.9865942 10.856295586
103 1 11.104757309 4.9865942 2.171258688
104 1 11.104757309 0.712370932 10.856295586
105 1 11.104757309 0.712370932 2.171258688
106 1 6.169310093 9.260816574 2.171258688
107 1 6.169310093 4.9865942 2.171258688
108 1 6.169310093 0.712370932 2.171258688
109 1 1.233861923 9.260816574 10.856295586
110 1 1.233861923 9.260816574 2.171258688
111 1 1.233861923 4.9865942 10.856295586
112 1 1.233861923 4.9865942 2.171258688
113 1 1.233861923 0.712370932 10.856295586
114 1 1.233861923 0.712370932 2.171258688
115 1 11.104757309 10.685557365 15.198814392
116 1 11.104757309 10.685557365 6.513777733
117 1 11.104757309 6.411334515 15.198814392
118 1 11.104757309 6.411334515 6.513777733
119 1 11.104757309 2.13711071 15.198814392
120 1 11.104757309 2.13711071 6.513777733
121 1 6.169310093 10.685557365 15.198814392
122 1 6.169310093 6.411334515 15.198814392
123 1 6.169310093 2.13711071 15.198814392
124 1 1.233861923 10.685557365 15.198814392
125 1 1.233861923 10.685557365 6.513777733
126 1 1.233861923 6.411334515 15.198814392
127 1 1.233861923 6.411334515 6.513777733
128 1 1.233861923 2.13711071 15.198814392
129 1 1.233861923 2.13711071 6.513777733
130 1 13.572481155 10.685557365 15.198814392
131 1 13.572481155 10.685557365 6.513777733
132 1 13.572481155 6.411334515 15.198814392
133 1 13.572481155 6.411334515 6.513777733
134 1 13.572481155 2.13711071 15.198814392
135 1 13.572481155 2.13711071 6.513777733
136 1 8.637033463 10.685557365 15.198814392
137 1 8.637033463 6.411334515 15.198814392
138 1 8.637033463 2.13711071 15.198814392
139 1 3.70158577 10.685557365 15.198814392
140 1 3.70158577 10.685557365 6.513777733
141 1 3.70158577 6.411334515 15.198814392
142 1 3.70158577 6.411334515 6.513777733
143 1 3.70158577 2.13711071 15.198814392
144 1 3.70158577 2.13711071 6.513777733
145 1 12.338620186 8.548445702 15.198814392
146 1 12.338620186 8.548445702 6.513777733
147 1 12.338620186 4.274222374 15.198814392
148 1 12.338620186 4.274222374 6.513777733
149 1 12.338620186 0.0 15.198814392
150 1 12.338620186 0.0 6.513777733
151 1 7.403171539 8.548445702 15.198814392
152 1 7.403171539 4.274222374 15.198814392
153 1 7.403171539 0.0 15.198814392
154 1 2.467723846 8.548445702 15.198814392
155 1 2.467723846 8.548445702 6.513777733
156 1 2.467723846 4.274222374 15.198814392
157 1 2.467723846 4.274222374 6.513777733
158 1 2.467723846 0.0 15.198814392
159 1 2.467723846 0.0 6.513777733
160 1 9.870895386 8.548445702 15.198814392
161 1 9.870895386 4.274222374 15.198814392
162 1 9.870895386 0.0 15.198814392
163 1 4.935447693 8.548445702 15.198814392
164 1 4.935447693 4.274222374 15.198814392
165 1 4.935447693 0.0 15.198814392
166 1 0.0 8.548445702 15.198814392
167 1 0.0 8.548445702 6.513777733
168 1 0.0 4.274222374 15.198814392
169 1 0.0 4.274222374 6.513777733
170 1 0.0 0.0 15.198814392
171 1 0.0 0.0 6.513777733
172 1 11.104757309 10.685557365 10.856295586
173 1 11.104757309 10.685557365 2.171258688
174 1 11.104757309 6.411334515 10.856295586
175 1 11.104757309 6.411334515 2.171258688
176 1 11.104757309 2.13711071 10.856295586
177 1 11.104757309 2.13711071 2.171258688
178 1 6.169310093 10.685557365 2.171258688
179 1 6.169310093 6.411334515 2.171258688
180 1 6.169310093 2.13711071 2.171258688
181 1 1.233861923 10.685557365 10.856295586
182 1 1.233861923 10.685557365 2.171258688
183 1 1.233861923 6.411334515 10.856295586
184 1 1.233861923 6.411334515 2.171258688
185 1 1.233861923 2.13711071 10.856295586
186 1 1.233861923 2.13711071 2.171258688
187 1 13.572481155 10.685557365 10.856295586
188 1 13.572481155 10.685557365 2.171258688
189 1 13.572481155 6.411334515 10.856295586
190 1 13.572481155 6.411334515 2.171258688
191 1 13.572481155 2.13711071 10.856295586
192 1 13.572481155 2.13711071 2.171258688
193 1 8.637033463 10.685557365 2.171258688
194 1 8.637033463 6.411334515 2.171258688
195 1 8.637033463 2.13711071 2.171258688
196 1 3.70158577 10.685557365 10.856295586
197 1 3.70158577 10.685557365 2.171258688
198 1 3.70158577 6.411334515 10.856295586
199 1 3.70158577 6.411334515 2.171258688
200 1 3.70158577 2.13711071 10.856295586
201 1 3.70158577 2.13711071 2.171258688
202 1 12.338620186 8.548445702 10.856295586
203 1 12.338620186 8.548445702 2.171258688
204 1 12.338620186 4.274222374 10.856295586
205 1 12.338620186 4.274222374 2.171258688
206 1 12.338620186 0.0 10.856295586
207 1 12.338620186 0.0 2.171258688
208 1 7.403171539 8.548445702 2.171258688
209 1 7.403171539 4.274222374 2.171258688
210 1 7.403171539 0.0 2.171258688
211 1 2.467723846 8.548445702 10.856295586
212 1 2.467723846 8.548445702 2.171258688
213 1 2.467723846 4.274222374 10.856295586
214 1 2.467723846 4.274222374 2.171258688
215 1 2.467723846 0.0 10.856295586
216 1 2.467723846 0.0 2.171258688
217 1 9.870895386 8.548445702 2.171258688
218 1 9.870895386 4.274222374 2.171258688
219 1 9.870895386 0.0 2.171258688
220 1 4.935447693 8.548445702 2.171258688
221 1 4.935447693 4.274222374 2.171258688
222 1 4.935447693 0.0 2.171258688
223 1 0.0 8.548445702 10.856295586
224 1 0.0 8.548445702 2.171258688
225 1 0.0 4.274222374 10.856295586
226 1 0.0 4.274222374 2.171258688
227 1 0.0 0.0 10.856295586
228 1 0.0 0.0 2.171258688
