# LAMMPS data file written by Ovito Basic 3.0.0-dev791
227 atoms
2 atom types
0.0 14.8063440323 xlo xhi
0.0 12.8226699829 ylo yhi
0.0 17.3700752258 zlo zhi

Atoms  # atomic

1 1 11.104757309 12.110298157 15.198814392
2 1 11.104757309 12.110298157 6.513777733
3 1 11.104757309 7.836075306 15.198814392
4 1 11.104757309 7.836075306 6.513777733
5 1 11.104757309 3.561851501 15.198814392
6 1 11.104757309 3.561851501 6.513777733
7 1 6.169310093 12.110298157 15.198814392
8 1 6.169310093 7.836075306 15.198814392
9 1 6.169310093 3.561851501 15.198814392
10 1 1.233861923 12.110298157 15.198814392
11 1 1.233861923 12.110298157 6.513777733
12 1 1.233861923 7.836075306 15.198814392
13 1 1.233861923 7.836075306 6.513777733
14 1 1.233861923 3.561851501 15.198814392
15 1 1.233861923 3.561851501 6.513777733
16 1 13.572481155 12.110298157 15.198814392
17 1 13.572481155 12.110298157 6.513777733
18 1 13.572481155 7.836075306 15.198814392
19 1 13.572481155 7.836075306 6.513777733
20 1 13.572481155 3.561851501 15.198814392
21 1 13.572481155 3.561851501 6.513777733
22 1 8.637033463 12.110298157 15.198814392
23 1 8.637033463 7.836075306 15.198814392
24 1 8.637033463 3.561851501 15.198814392
25 1 3.70158577 12.110298157 15.198814392
26 1 3.70158577 12.110298157 6.513777733
27 1 3.70158577 7.836075306 15.198814392
28 1 3.70158577 7.836075306 6.513777733
29 1 3.70158577 3.561851501 15.198814392
30 1 3.70158577 3.561851501 6.513777733
31 1 12.338620186 9.9731884 15.198814392
32 1 12.338620186 9.9731884 6.513777733
33 1 12.338620186 5.698965073 15.198814392
34 1 12.338620186 5.698965073 6.513777733
35 1 12.338620186 1.424740911 15.198814392
36 1 12.338620186 1.424740911 6.513777733
37 1 7.403171539 9.9731884 15.198814392
38 1 7.403171539 5.698965073 15.198814392
39 1 7.403171539 1.424740911 15.198814392
40 1 2.467723846 9.9731884 15.198814392
41 1 2.467723846 9.9731884 6.513777733
42 1 2.467723846 5.698965073 15.198814392
43 1 2.467723846 5.698965073 6.513777733
44 1 2.467723846 1.424740911 15.198814392
45 1 2.467723846 1.424740911 6.513777733
46 1 9.870895386 9.9731884 15.198814392
47 1 9.870895386 5.698965073 15.198814392
48 1 9.870895386 1.424740911 15.198814392
49 1 4.935447693 9.9731884 15.198814392
50 1 4.935447693 5.698965073 15.198814392
51 1 4.935447693 1.424740911 15.198814392
52 1 0.0 9.9731884 15.198814392
53 1 0.0 9.9731884 6.513777733
54 1 0.0 5.698965073 15.198814392
55 1 0.0 5.698965073 6.513777733
56 1 0.0 1.424740911 15.198814392
57 1 0.0 1.424740911 6.513777733
58 1 12.338620186 11.397928238 10.856295586
59 1 12.338620186 11.397928238 2.171258688
60 1 12.338620186 7.12370491 10.856295586
61 1 12.338620186 7.12370491 2.171258688
62 1 12.338620186 2.849481821 10.856295586
63 1 12.338620186 2.849481821 2.171258688
64 1 7.403171539 11.397928238 2.171258688
65 1 7.403171539 2.849481821 2.171258688
66 1 2.467723846 11.397928238 10.856295586
67 1 2.467723846 11.397928238 2.171258688
68 1 2.467723846 7.12370491 10.856295586
69 1 2.467723846 7.12370491 2.171258688
70 1 2.467723846 2.849481821 10.856295586
71 1 2.467723846 2.849481821 2.171258688
72 1 9.870895386 11.397928238 2.171258688
73 1 9.870895386 7.12370491 2.171258688
74 1 9.870895386 2.849481821 2.171258688
75 1 4.935447693 11.397928238 2.171258688
76 1 4.935447693 7.12370491 2.171258688
77 1 4.935447693 2.849481821 2.171258688
78 1 0.0 11.397928238 10.856295586
79 1 0.0 11.397928238 2.171258688
80 1 0.0 7.12370491 10.856295586
81 1 0.0 7.12370491 2.171258688
82 1 0.0 2.849481821 10.856295586
83 1 0.0 2.849481821 2.171258688
84 1 13.572481155 9.260816574 10.856295586
85 1 13.572481155 9.260816574 2.171258688
86 1 13.572481155 4.9865942 10.856295586
87 1 13.572481155 4.9865942 2.171258688
88 1 13.572481155 0.712370932 10.856295586
89 1 13.572481155 0.712370932 2.171258688
90 1 8.637033463 9.260816574 2.171258688
91 1 8.637033463 4.9865942 2.171258688
92 1 8.637033463 0.712370932 2.171258688
93 1 3.70158577 9.260816574 10.856295586
94 1 3.70158577 9.260816574 2.171258688
95 1 3.70158577 4.9865942 10.856295586
96 1 3.70158577 4.9865942 2.171258688
97 1 3.70158577 0.712370932 10.856295586
98 1 3.70158577 0.712370932 2.171258688
99 1 11.104757309 9.260816574 10.856295586
100 1 11.104757309 9.260816574 2.171258688
101 1 11.104757309 4.9865942 10.856295586
102 1 11.104757309 4.9865942 2.171258688
103 1 11.104757309 0.712370932 10.856295586
104 1 11.104757309 0.712370932 2.171258688
105 1 6.169310093 9.260816574 2.171258688
106 1 6.169310093 4.9865942 2.171258688
107 1 6.169310093 0.712370932 2.171258688
108 1 1.233861923 9.260816574 10.856295586
109 1 1.233861923 9.260816574 2.171258688
110 1 1.233861923 4.9865942 10.856295586
111 1 1.233861923 4.9865942 2.171258688
112 1 1.233861923 0.712370932 10.856295586
113 1 1.233861923 0.712370932 2.171258688
114 1 11.104757309 10.685557365 15.198814392
115 1 11.104757309 10.685557365 6.513777733
116 1 11.104757309 6.411334515 15.198814392
117 1 11.104757309 6.411334515 6.513777733
118 1 11.104757309 2.13711071 15.198814392
119 1 11.104757309 2.13711071 6.513777733
120 1 6.169310093 10.685557365 15.198814392
121 1 6.169310093 6.411334515 15.198814392
122 1 6.169310093 2.13711071 15.198814392
123 1 1.233861923 10.685557365 15.198814392
124 1 1.233861923 10.685557365 6.513777733
125 1 1.233861923 6.411334515 15.198814392
126 1 1.233861923 6.411334515 6.513777733
127 1 1.233861923 2.13711071 15.198814392
128 1 1.233861923 2.13711071 6.513777733
129 1 13.572481155 10.685557365 15.198814392
130 1 13.572481155 10.685557365 6.513777733
131 1 13.572481155 6.411334515 15.198814392
132 1 13.572481155 6.411334515 6.513777733
133 1 13.572481155 2.13711071 15.198814392
134 1 13.572481155 2.13711071 6.513777733
135 1 8.637033463 10.685557365 15.198814392
136 1 8.637033463 6.411334515 15.198814392
137 1 8.637033463 2.13711071 15.198814392
138 1 3.70158577 10.685557365 15.198814392
139 1 3.70158577 10.685557365 6.513777733
140 1 3.70158577 6.411334515 15.198814392
141 1 3.70158577 6.411334515 6.513777733
142 1 3.70158577 2.13711071 15.198814392
143 1 3.70158577 2.13711071 6.513777733
144 1 12.338620186 8.548445702 15.198814392
145 1 12.338620186 8.548445702 6.513777733
146 1 12.338620186 4.274222374 15.198814392
147 1 12.338620186 4.274222374 6.513777733
148 1 12.338620186 0.0 15.198814392
149 1 12.338620186 0.0 6.513777733
150 1 7.403171539 8.548445702 15.198814392
151 1 7.403171539 4.274222374 15.198814392
152 1 7.403171539 0.0 15.198814392
153 1 2.467723846 8.548445702 15.198814392
154 1 2.467723846 8.548445702 6.513777733
155 1 2.467723846 4.274222374 15.198814392
156 1 2.467723846 4.274222374 6.513777733
157 1 2.467723846 0.0 15.198814392
158 1 2.467723846 0.0 6.513777733
159 1 9.870895386 8.548445702 15.198814392
160 1 9.870895386 4.274222374 15.198814392
161 1 9.870895386 0.0 15.198814392
162 1 4.935447693 8.548445702 15.198814392
163 1 4.935447693 4.274222374 15.198814392
164 1 4.935447693 0.0 15.198814392
165 1 0.0 8.548445702 15.198814392
166 1 0.0 8.548445702 6.513777733
167 1 0.0 4.274222374 15.198814392
168 1 0.0 4.274222374 6.513777733
169 1 0.0 0.0 15.198814392
170 1 0.0 0.0 6.513777733
171 1 11.104757309 10.685557365 10.856295586
172 1 11.104757309 10.685557365 2.171258688
173 1 11.104757309 6.411334515 10.856295586
174 1 11.104757309 6.411334515 2.171258688
175 1 11.104757309 2.13711071 10.856295586
176 1 11.104757309 2.13711071 2.171258688
177 1 6.169310093 10.685557365 2.171258688
178 1 6.169310093 6.411334515 2.171258688
179 1 6.169310093 2.13711071 2.171258688
180 1 1.233861923 10.685557365 10.856295586
181 1 1.233861923 10.685557365 2.171258688
182 1 1.233861923 6.411334515 10.856295586
183 1 1.233861923 6.411334515 2.171258688
184 1 1.233861923 2.13711071 10.856295586
185 1 1.233861923 2.13711071 2.171258688
186 1 13.572481155 10.685557365 10.856295586
187 1 13.572481155 10.685557365 2.171258688
188 1 13.572481155 6.411334515 10.856295586
189 1 13.572481155 6.411334515 2.171258688
190 1 13.572481155 2.13711071 10.856295586
191 1 13.572481155 2.13711071 2.171258688
192 1 8.637033463 10.685557365 2.171258688
193 1 8.637033463 6.411334515 2.171258688
194 1 8.637033463 2.13711071 2.171258688
195 1 3.70158577 10.685557365 10.856295586
196 1 3.70158577 10.685557365 2.171258688
197 1 3.70158577 6.411334515 10.856295586
198 1 3.70158577 6.411334515 2.171258688
199 1 3.70158577 2.13711071 10.856295586
200 1 3.70158577 2.13711071 2.171258688
201 1 12.338620186 8.548445702 10.856295586
202 1 12.338620186 8.548445702 2.171258688
203 1 12.338620186 4.274222374 10.856295586
204 1 12.338620186 4.274222374 2.171258688
205 1 12.338620186 0.0 10.856295586
206 1 12.338620186 0.0 2.171258688
207 1 7.403171539 8.548445702 2.171258688
208 1 7.403171539 4.274222374 2.171258688
209 1 7.403171539 0.0 2.171258688
210 1 2.467723846 8.548445702 10.856295586
211 1 2.467723846 8.548445702 2.171258688
212 1 2.467723846 4.274222374 10.856295586
213 1 2.467723846 4.274222374 2.171258688
214 1 2.467723846 0.0 10.856295586
215 1 2.467723846 0.0 2.171258688
216 1 9.870895386 8.548445702 2.171258688
217 1 9.870895386 4.274222374 2.171258688
218 1 9.870895386 0.0 2.171258688
219 1 4.935447693 8.548445702 2.171258688
220 1 4.935447693 4.274222374 2.171258688
221 1 4.935447693 0.0 2.171258688
222 1 0.0 8.548445702 10.856295586
223 1 0.0 8.548445702 2.171258688
224 1 0.0 4.274222374 10.856295586
225 1 0.0 4.274222374 2.171258688
226 1 0.0 0.0 10.856295586
227 1 0.0 0.0 2.171258688
