 *******************************************************************************
 **                                                                           **
 **                              MOPAC v22.1.0                                **
 **                                                                           **
 *******************************************************************************
 **          Digital Object Identifier (DOI): 10.5281/zenodo.6511958          **
 **    Visit the DOI location for information on how to cite this program.    **
 *******************************************************************************

                              PM7 CALCULATION RESULTS

 *******************************************************************************
 *  CALCULATION DONE:                                Wed Jan 31 12:52:39 2024  *
 *  PM7        - The PM7 Hamiltonian to be used
 *  NOOPT      - DO NOT OPTIMIZE ANY COORDINATES
 *
 *
 *
 *                 CHARGE ON SYSTEM = 0
 *
 *
 *
 *  T=         - A TIME OF 172800.0 SECONDS REQUESTED
 *  DUMP=N     - RESTART FILE WRITTEN EVERY 7200.0 SECONDS REQUESTED
 *******************************************************************************
PM7 CHARGE=0 NOOPT


   ATOM   CHEMICAL          X               Y               Z
  NUMBER   SYMBOL      (ANGSTROMS)     (ANGSTROMS)     (ANGSTROMS)

     1       C         17.76606700     14.46125600     21.22974000   
     2       C          2.84026000      5.73106700     21.64374400   
     3       C          3.17724000     15.62624400     11.74856700   
     4       C         21.22974000     17.76606700     14.46125600   
     5       C         21.64374400      2.84026000      5.73106700   
     6       C          3.59124400      0.28643300     20.89276000   
     7       C         14.46125600     21.22974000     17.76606700   
     8       C          5.73106700     21.64374400      2.84026000   
     9       C         15.62624400     11.74856700      3.17724000   
    10       C          6.30393300      2.42625600     14.87526000   
    11       C         20.47875600     12.32143300     15.21224000   
    12       C         20.89276000      3.59124400      0.28643300   
    13       C         12.32143300     15.21224000     20.47875600   
    14       C         15.21224000     20.47875600     12.32143300   
    15       C          8.44375600     23.78356700      8.85776000   
    16       C         18.33893300      9.60874400      9.19474000   
    17       C          9.60874400      9.19474000     18.33893300   
    18       C         14.87526000      6.30393300      2.42625600   
    19       C          2.42625600     14.87526000      6.30393300   
    20       C         23.78356700      8.85776000      8.44375600   
    21       C          8.85776000      8.44375600     23.78356700   
    22       C         11.74856700      3.17724000     15.62624400   
    23       C          0.28643300     20.89276000      3.59124400   
    24       C          9.19474000     18.33893300      9.60874400   
    25       C         18.94068300     14.63696700     20.42098800   
    26       C          3.64901200      6.90568300     21.46803300   
    27       C          2.36848800     15.45053300     12.92318300   
    28       C         20.42098800     18.94068300     14.63696700   
    29       C         21.46803300      3.64901200      6.90568300   
    30       C          3.41553300     23.18181700     21.70151200   
    31       C         14.63696700     20.42098800     18.94068300   
    32       C          6.90568300     21.46803300      3.64901200   
    33       C         15.45053300     12.92318300      2.36848800   
    34       C          5.12931700      2.60196700     15.68401200   
    35       C         20.65446700     11.14681700     14.40348800   
    36       C         21.70151200      3.41553300     23.18181700   
    37       C         11.14681700     14.40348800     20.65446700   
    38       C         14.40348800     20.65446700     11.14681700   
    39       C          8.61946700      0.88818300      9.66651200   
    40       C         17.16431700      9.43303300      8.38598800   
    41       C          9.43303300      8.38598800     17.16431700   
    42       C         15.68401200      5.12931700      2.60196700   
    43       C          2.60196700     15.68401200      5.12931700   
    44       C          0.88818300      9.66651200      8.61946700   
    45       C          9.66651200      8.61946700      0.88818300   
    46       C         12.92318300      2.36848800     15.45053300   
    47       C         23.18181700     21.70151200      3.41553300   
    48       C          8.38598800     17.16431700      9.43303300   
    49       C         15.55884800     15.38313700     22.14199300   
    50       C          1.92800700      3.52384800     20.72186300   
    51       C          4.08949300     14.70436300      9.54134800   
    52       C         22.14199300     15.55884800     15.38313700   
    53       C         20.72186300      1.92800700      3.52384800   
    54       C          2.66936300      2.49365200     19.98050700   
    55       C         15.38313700     22.14199300     15.55884800   
    56       C          3.52384800     20.72186300      1.92800700   
    57       C         14.70436300      9.54134800      4.08949300   
    58       C          8.51115200      3.34813700     13.96300700   
    59       C         21.40063700     14.52865200     16.12449300   
    60       C         19.98050700      2.66936300      2.49365200   
    61       C         14.52865200     16.12449300     21.40063700   
    62       C         16.12449300     21.40063700     14.52865200   
    63       C          9.36563700     21.57634800      7.94550700   
    64       C         20.54615200      8.68686300     10.10699300   
    65       C          8.68686300     10.10699300     20.54615200   
    66       C         13.96300700      8.51115200      3.34813700   
    67       C          3.34813700     13.96300700      8.51115200   
    68       C         21.57634800      7.94550700      9.36563700   
    69       C          7.94550700      9.36563700     21.57634800   
    70       C          9.54134800      4.08949300     14.70436300   
    71       C          2.49365200     19.98050700      2.66936300   
    72       C         10.10699300     20.54615200      8.68686300   
    73       C         19.21748800     19.98050700     17.98510400   
    74       C          6.08489600      7.18248800     16.12449300   
    75       C         24.00260400     10.10699300     13.19998800   
    76       C         17.98510400     19.21748800     19.98050700   
    77       C         16.12449300      6.08489600      7.18248800   
    78       C         22.14199300     22.90501200      0.06739600   
    79       C         19.98050700     17.98510400     19.21748800   
    80       C          7.18248800     16.12449300      6.08489600   
    81       C         10.10699300     13.19998800     24.00260400   
    82       C          4.85251200      7.94550700     18.11989600   
    83       C          1.92800700     10.87001200     11.96760400   
    84       C          0.06739600     22.14199300     22.90501200   
    85       C         10.87001200     11.96760400      1.92800700   
    86       C         11.96760400      1.92800700     10.87001200   
    87       C         13.96300700      1.16498800     12.10239600   
    88       C         16.88751200      4.08949300      5.95010400   
    89       C          4.08949300      5.95010400     16.88751200   
    90       C         18.11989600      4.85251200      7.94550700   
    91       C          7.94550700     18.11989600      4.85251200   
    92       C          1.16498800     12.10239600     13.96300700   
    93       C         12.10239600     13.96300700      1.16498800   
    94       C         13.19998800     24.00260400     10.10699300   
    95       C         22.90501200      0.06739600     22.14199300   
    96       C          5.95010400     16.88751200      4.08949300   
    97       C         18.45687600     16.94528000     20.56300100   
    98       C          3.50699900      6.42187600     19.15972000   
    99       C          2.51050100     13.14222000     12.43937600   
   100       C         20.56300100     18.45687600     16.94528000   
   101       C         19.15972000      3.50699900      6.42187600   
   102       C          1.10722000     23.66562400     21.55949900   
   103       C         16.94528000     20.56300100     18.45687600   
   104       C          6.42187600     19.15972000      3.50699900   
   105       C         13.14222000     12.43937600      2.51050100   
   106       C          5.61312400      4.91028000     15.54199900   
   107       C         22.96278000     11.63062400     14.54550100   
   108       C         21.55949900      1.10722000     23.66562400   
   109       C         11.63062400     14.54550100     22.96278000   
   110       C         14.54550100     22.96278000     11.63062400   
   111       C         10.92778000      0.40437600      9.52449900   
   112       C         17.64812400      7.12472000      8.52800100   
   113       C          7.12472000      8.52800100     17.64812400   
   114       C         15.54199900      5.61312400      4.91028000   
   115       C          4.91028000     15.54199900      5.61312400   
   116       C          0.40437600      9.52449900     10.92778000   
   117       C          9.52449900     10.92778000      0.40437600   
   118       C         12.43937600      2.51050100     13.14222000   
   119       C         23.66562400     21.55949900      1.10722000   
   120       C          8.52800100     17.64812400      7.12472000   
   121       C          2.13741600     11.06738600     10.53062500   
   122       C         23.10238600      1.50437500     21.93258400   
   123       C         11.06738600     10.53062500      2.13741600   
   124       C          0.96761400     13.53937500     14.17241600   
   125       C         21.93258400     23.10238600      1.50437500   
   126       C         13.53937500     14.17241600      0.96761400   
   127       C         14.17241600      0.96761400     13.53937500   
   128       C         13.00261400     22.56562500      9.89758400   
   129       C         22.56562500      9.89758400     13.00261400   
   130       C          9.89758400     13.00261400     22.56562500   
   131       C         10.53062500      2.13741600     11.06738600   
   132       C          1.50437500     21.93258400     23.10238600   
   133       C         23.22514300     21.99035200     23.90873100   
   134       C          0.16126900     11.19014300     14.11464800   
   135       C          5.85623100      8.09714800     17.20764300   
   136       C         23.90873100     23.22514300     21.99035200   
   137       C         14.11464800      0.16126900     11.19014300   
   138       C         20.13214800     18.89735700     18.21376900   
   139       C         21.99035200     23.90873100     23.22514300   
   140       C         11.19014300     14.11464800      0.16126900   
   141       C          8.09714800     17.20764300      5.85623100   
   142       C          0.84485700      9.95535200     12.19626900   
   143       C          3.93785200      6.86235700     17.89123100   
   144       C         18.21376900     20.13214800     18.89735700   
   145       C          6.86235700     17.89123100      3.93785200   
   146       C         17.89123100      3.93785200      6.86235700   
   147       C         15.97285200      5.17264300      6.17876900   
   148       C         12.87985700      2.07964800     11.87373100   
   149       C          2.07964800     11.87373100     12.87985700   
   150       C         12.19626900      0.84485700      9.95535200   
   151       C          9.95535200     12.19626900      0.84485700   
   152       C          5.17264300      6.17876900     15.97285200   
   153       C          6.17876900     15.97285200      5.17264300   
   154       C         17.20764300      5.85623100      8.09714800   
   155       C         18.89735700     18.21376900     20.13214800   
   156       C         11.87373100     12.87985700      2.07964800   
   157       C         17.16672400     16.79123200     21.00829600   
   158       C          3.06170400      5.13172400     19.31376800   
   159       C          2.95579600     13.29626800     11.14922400   
   160       C         21.00829600     17.16672400     16.79123200   
   161       C         19.31376800      3.06170400      5.13172400   
   162       C          1.26126800      0.88577600     21.11420400   
   163       C         16.79123200     21.00829600     17.16672400   
   164       C          5.13172400     19.31376800      3.06170400   
   165       C         13.29626800     11.14922400      2.95579600   
   166       C          6.90327600      4.75623200     15.09670400   
   167       C         22.80873200     12.92077600     14.99079600   
   168       C         21.11420400      1.26126800      0.88577600   
   169       C         12.92077600     14.99079600     22.80873200   
   170       C         14.99079600     22.80873200     12.92077600   
   171       C         10.77373200     23.18422400      9.07920400   
   172       C         18.93827600      7.27876800      8.97329600   
   173       C          7.27876800      8.97329600     18.93827600   
   174       C         15.09670400      6.90327600      4.75623200   
   175       C          4.75623200     15.09670400      6.90327600   
   176       C         23.18422400      9.07920400     10.77373200   
   177       C          9.07920400     10.77373200     23.18422400   
   178       C         11.14922400      2.95579600     13.29626800   
   179       C          0.88577600     21.11420400      1.26126800   
   180       C          8.97329600     18.93827600      7.27876800   
   181       C         16.16300500     17.81420700     20.72908400   
   182       C          3.34091600      4.12800500     18.29079300   
   183       C          2.67658400     12.27329300     10.14550500   
   184       C         20.72908400     16.16300500     17.81420700   
   185       C         18.29079300      3.34091600      4.12800500   
   186       C          0.23829300      1.88949500     21.39341600   
   187       C         17.81420700     20.72908400     16.16300500   
   188       C          4.12800500     18.29079300      3.34091600   
   189       C         12.27329300     10.14550500      2.67658400   
   190       C          7.90699500      5.77920700     15.37591600   
   191       C         23.83170700     13.92449500     14.71158400   
   192       C         21.39341600      0.23829300      1.88949500   
   193       C         13.92449500     14.71158400     23.83170700   
   194       C         14.71158400     23.83170700     13.92449500   
   195       C         11.79670700     22.18050500      9.35841600   
   196       C         19.94199500      6.25579300      8.69408400   
   197       C          6.25579300      8.69408400     19.94199500   
   198       C         15.37591600      7.90699500      5.77920700   
   199       C          5.77920700     15.37591600      7.90699500   
   200       C         22.18050500      9.35841600     11.79670700   
   201       C          9.35841600     11.79670700     22.18050500   
   202       C         10.14550500      2.67658400     12.27329300   
   203       C          1.88949500     21.39341600      0.23829300   
   204       C          8.69408400     19.94199500      6.25579300   
   205       C         19.29932600     15.89101400     20.03346100   
   206       C          4.03653900      7.26432600     20.21398600   
   207       C          1.98096100     14.19648600     13.28182600   
   208       C         20.03346100     19.29932600     15.89101400   
   209       C         20.21398600      4.03653900      7.26432600   
   210       C          2.16148600     22.82317400     22.08903900   
   211       C         15.89101400     20.03346100     19.29932600   
   212       C          7.26432600     20.21398600      4.03653900   
   213       C         14.19648600     13.28182600      1.98096100   
   214       C          4.77067400      3.85601400     16.07153900   
   215       C         21.90851400     10.78817400     14.01596100   
   216       C         22.08903900      2.16148600     22.82317400   
   217       C         10.78817400     14.01596100     21.90851400   
   218       C         14.01596100     21.90851400     10.78817400   
   219       C          9.87351400      1.24682600     10.05403900   
   220       C         16.80567400      8.17898600      7.99846100   
   221       C          8.17898600      7.99846100     16.80567400   
   222       C         16.07153900      4.77067400      3.85601400   
   223       C          3.85601400     16.07153900      4.77067400   
   224       C          1.24682600     10.05403900      9.87351400   
   225       C         10.05403900      9.87351400      1.24682600   
   226       C         13.28182600      1.98096100     14.19648600   
   227       C         22.82317400     22.08903900      2.16148600   
   228       C          7.99846100     16.80567400      8.17898600   
   229       C         14.79342200     17.30392300     20.81332900   
   230       C          3.25667100      2.75842200     18.80107700   
   231       C          2.76082900     12.78357700      8.77592200   
   232       C         20.81332900     14.79342200     17.30392300   
   233       C         18.80107700      3.25667100      2.75842200   
   234       C          0.74857700      3.25907800     21.30917100   
   235       C         17.30392300     20.81332900     14.79342200   
   236       C          2.75842200     18.80107700      3.25667100   
   237       C         12.78357700      8.77592200      2.76082900   
   238       C          9.27657800      5.26892300     15.29167100   
   239       C         23.32142300     15.29407800     14.79582900   
   240       C         21.30917100      0.74857700      3.25907800   
   241       C         15.29407800     14.79582900     23.32142300   
   242       C         14.79582900     23.32142300     15.29407800   
   243       C         11.28642300     20.81092200      9.27417100   
   244       C         21.31157800      6.76607700      8.77832900   
   245       C          6.76607700      8.77832900     21.31157800   
   246       C         15.29167100      9.27657800      5.26892300   
   247       C          5.26892300     15.29167100      9.27657800   
   248       C         20.81092200      9.27417100     11.28642300   
   249       C          9.27417100     11.28642300     20.81092200   
   250       C          8.77592200      2.76082900     12.78357700   
   251       C          3.25907800     21.30917100      0.74857700   
   252       C          8.77832900     21.31157800      6.76607700   
   253       C          3.43478900     14.61049000     10.86279100   
   254       C          2.57549000      1.17220900     20.63521100   
   255       C         14.61049000     10.86279100      3.43478900   
   256       C         21.49451000     13.20720900     15.46978900   
   257       C         20.63521100      2.57549000      1.17220900   
   258       C         13.20720900     15.46978900     21.49451000   
   259       C         15.46978900     21.49451000     13.20720900   
   260       C          9.45951000     22.89779100      8.60021100   
   261       C         22.89779100      8.60021100      9.45951000   
   262       C          8.60021100      9.45951000     22.89779100   
   263       C         10.86279100      3.43478900     14.61049000   
   264       C          1.17220900     20.63521100      2.57549000   
   265       B         16.54812500     19.02011400     20.18991600   
   266       B          3.88008400      4.51312500     17.08488600   
   267       B         20.18991600     16.54812500     19.02011400   
   268       B         17.08488600      3.88008400      4.51312500   
   269       B         19.02011400     20.18991600     16.54812500   
   270       B          4.51312500     17.08488600      3.88008400   
   271       B          7.52187500      6.98511400     15.91508400   
   272       B         19.55687500      5.04988600      8.15491600   
   273       B          5.04988600      8.15491600     19.55687500   
   274       B         15.91508400      7.52187500      6.98511400   
   275       B          6.98511400     15.91508400      7.52187500   
   276       B          8.15491600     19.55687500      5.04988600   
   277       B         16.88029100     15.47701000     21.48728900   
   278       B          2.58271100      4.84529100     20.62799000   
   279       B         21.48728900     16.88029100     15.47701000   
   280       B         20.62799000      2.58271100      4.84529100   
   281       B         15.47701000     21.48728900     16.88029100   
   282       B          4.84529100     20.62799000      2.58271100   
   283       B          7.18970900      3.44201000     14.61771100   
   284       B         19.22470900      8.59299000      9.45228900   
   285       B          8.59299000      9.45228900     19.22470900   
   286       B         14.61771100      7.18970900      3.44201000   
   287       B          3.44201000     14.61771100      7.18970900   
   288       B          9.45228900     19.22470900      8.59299000   
   289       H         13.45031600     21.59801100     17.55184400   
   290       H          6.51815600      1.41531600     14.50698900   
   291       H         23.56934400      8.48948900      7.43281600   
   292       H         17.55184400     13.45031600     21.59801100   
   293       H         14.50698900      6.51815600      1.41531600   
   294       H         20.52448900      4.60218400      0.50065600   
   295       H         21.59801100     17.55184400     13.45031600   
   296       H          1.41531600     14.50698900      6.51815600   
   297       H          8.48948900      7.43281600     23.56934400   
   298       H         10.61968400      9.56301100     18.55315600   
   299       H          3.54551100     16.63718400     11.53434400   
   300       H          0.50065600     20.52448900      4.60218400   
   301       H         16.63718400     11.53434400      3.54551100   
   302       H         11.53434400      3.54551100     16.63718400   
   303       H         15.58051100     19.46781600     12.53565600   
   304       H         22.65468400      2.47198900      5.51684400   
   305       H          2.47198900      5.51684400     22.65468400   
   306       H         18.55315600     10.61968400      9.56301100   
   307       H          9.56301100     18.55315600     10.61968400   
   308       H         19.46781600     12.53565600     15.58051100   
   309       H         12.53565600     15.58051100     19.46781600   
   310       H          7.43281600     23.56934400      8.48948900   
   311       H          4.60218400      0.50065600     20.52448900   
   312       H          5.51684400     22.65468400      2.47198900   
   313       H         13.74878400     20.12733400     19.49910700   
   314       H          4.57089300      1.71378400     15.97766600   
   315       H          1.44660700      9.96016600      7.73128400   
   316       H         19.49910700     13.74878400     20.12733400   
   317       H         15.97766600      4.57089300      1.71378400   
   318       H         21.99516600      4.30371600     22.62339300   
   319       H         20.12733400     19.49910700     13.74878400   
   320       H          1.71378400     15.97766600      4.57089300   
   321       H          9.96016600      7.73128400      1.44660700   
   322       H         10.32121600      8.09233400     16.60589300   
   323       H          2.07483400     16.33871600     13.48160700   
   324       H         22.62339300     21.99516600      4.30371600   
   325       H         16.33871600     13.48160700      2.07483400   
   326       H         13.48160700      2.07483400     16.33871600   
   327       H         14.10983400     19.76628400     10.58839300   
   328       H         22.35621600      3.94266600      7.46410700   
   329       H          3.94266600      7.46410700     22.35621600   
   330       H         16.60589300     10.32121600      8.09233400   
   331       H          8.09233400     16.60589300     10.32121600   
   332       H         19.76628400     10.58839300     14.10983400   
   333       H         10.58839300     14.10983400     19.76628400   
   334       H          7.73128400      1.44660700      9.96016600   
   335       H          4.30371600     22.62339300     21.99516600   
   336       H          7.46410700     22.35621600      3.94266600   
   337       H         14.00392600     17.89845200     20.33674300   
   338       H          3.73325700      1.96892600     18.20654800   
   339       H          2.28424300     12.18904800      7.98642600   
   340       H         20.33674300     14.00392600     17.89845200   
   341       H         18.20654800      3.73325700      1.96892600   
   342       H          0.15404800      4.04857400     21.78575700   
   343       H         17.89845200     20.33674300     14.00392600   
   344       H          1.96892600     18.20654800      3.73325700   
   345       H         12.18904800      7.98642600      2.28424300   
   346       H         10.06607400      5.86345200     15.76825700   
   347       H         23.91595200     16.08357400     14.31924300   
   348       H         21.78575700      0.15404800      4.04857400   
   349       H         16.08357400     14.31924300     23.91595200   
   350       H         14.31924300     23.91595200     16.08357400   
   351       H         11.88095200     20.02142600      9.75075700   
   352       H         22.10107400      6.17154800      8.30174300   
   353       H          6.17154800      8.30174300     22.10107400   
   354       H         15.76825700     10.06607400      5.86345200   
   355       H          5.86345200     15.76825700     10.06607400   
   356       H         20.02142600      9.75075700     11.88095200   
   357       H          9.75075700     11.88095200     20.02142600   
   358       H          7.98642600      2.28424300     12.18904800   
   359       H          4.04857400     21.78575700      0.15404800   
   360       H          8.30174300     22.10107400      6.17154800   
   361      Tv         24.07000000      0.00000000      0.00000000   
   362      Tv          0.00000000     24.07000000      0.00000000   
   363      Tv          0.00000000      0.00000000     24.07000000   


                   THE SYSTEM IS A SOLID


                UNIT CELL TRANSLATION VECTORS

              X                Y              Z
    T1 =    24.0700000      0.0000000      0.0000000
    T2 =     0.0000000     24.0700000      0.0000000
    T3 =     0.0000000      0.0000000     24.0700000


          CARTESIAN COORDINATES 

    NO.       ATOM           X           Y           Z

     1         C         17.7661     14.4613     21.2297
     2         C          2.8403      5.7311     21.6437
     3         C          3.1772     15.6262     11.7486
     4         C         21.2297     17.7661     14.4613
     5         C         21.6437      2.8403      5.7311
     6         C          3.5912      0.2864     20.8928
     7         C         14.4613     21.2297     17.7661
     8         C          5.7311     21.6437      2.8403
     9         C         15.6262     11.7486      3.1772
    10         C          6.3039      2.4263     14.8753
    11         C         20.4788     12.3214     15.2122
    12         C         20.8928      3.5912      0.2864
    13         C         12.3214     15.2122     20.4788
    14         C         15.2122     20.4788     12.3214
    15         C          8.4438     23.7836      8.8578
    16         C         18.3389      9.6087      9.1947
    17         C          9.6087      9.1947     18.3389
    18         C         14.8753      6.3039      2.4263
    19         C          2.4263     14.8753      6.3039
    20         C         23.7836      8.8578      8.4438
    21         C          8.8578      8.4438     23.7836
    22         C         11.7486      3.1772     15.6262
    23         C          0.2864     20.8928      3.5912
    24         C          9.1947     18.3389      9.6087
    25         C         18.9407     14.6370     20.4210
    26         C          3.6490      6.9057     21.4680
    27         C          2.3685     15.4505     12.9232
    28         C         20.4210     18.9407     14.6370
    29         C         21.4680      3.6490      6.9057
    30         C          3.4155     23.1818     21.7015
    31         C         14.6370     20.4210     18.9407
    32         C          6.9057     21.4680      3.6490
    33         C         15.4505     12.9232      2.3685
    34         C          5.1293      2.6020     15.6840
    35         C         20.6545     11.1468     14.4035
    36         C         21.7015      3.4155     23.1818
    37         C         11.1468     14.4035     20.6545
    38         C         14.4035     20.6545     11.1468
    39         C          8.6195      0.8882      9.6665
    40         C         17.1643      9.4330      8.3860
    41         C          9.4330      8.3860     17.1643
    42         C         15.6840      5.1293      2.6020
    43         C          2.6020     15.6840      5.1293
    44         C          0.8882      9.6665      8.6195
    45         C          9.6665      8.6195      0.8882
    46         C         12.9232      2.3685     15.4505
    47         C         23.1818     21.7015      3.4155
    48         C          8.3860     17.1643      9.4330
    49         C         15.5588     15.3831     22.1420
    50         C          1.9280      3.5238     20.7219
    51         C          4.0895     14.7044      9.5413
    52         C         22.1420     15.5588     15.3831
    53         C         20.7219      1.9280      3.5238
    54         C          2.6694      2.4937     19.9805
    55         C         15.3831     22.1420     15.5588
    56         C          3.5238     20.7219      1.9280
    57         C         14.7044      9.5413      4.0895
    58         C          8.5112      3.3481     13.9630
    59         C         21.4006     14.5287     16.1245
    60         C         19.9805      2.6694      2.4937
    61         C         14.5287     16.1245     21.4006
    62         C         16.1245     21.4006     14.5287
    63         C          9.3656     21.5763      7.9455
    64         C         20.5462      8.6869     10.1070
    65         C          8.6869     10.1070     20.5462
    66         C         13.9630      8.5112      3.3481
    67         C          3.3481     13.9630      8.5112
    68         C         21.5763      7.9455      9.3656
    69         C          7.9455      9.3656     21.5763
    70         C          9.5413      4.0895     14.7044
    71         C          2.4937     19.9805      2.6694
    72         C         10.1070     20.5462      8.6869
    73         C         19.2175     19.9805     17.9851
    74         C          6.0849      7.1825     16.1245
    75         C         24.0026     10.1070     13.2000
    76         C         17.9851     19.2175     19.9805
    77         C         16.1245      6.0849      7.1825
    78         C         22.1420     22.9050      0.0674
    79         C         19.9805     17.9851     19.2175
    80         C          7.1825     16.1245      6.0849
    81         C         10.1070     13.2000     24.0026
    82         C          4.8525      7.9455     18.1199
    83         C          1.9280     10.8700     11.9676
    84         C          0.0674     22.1420     22.9050
    85         C         10.8700     11.9676      1.9280
    86         C         11.9676      1.9280     10.8700
    87         C         13.9630      1.1650     12.1024
    88         C         16.8875      4.0895      5.9501
    89         C          4.0895      5.9501     16.8875
    90         C         18.1199      4.8525      7.9455
    91         C          7.9455     18.1199      4.8525
    92         C          1.1650     12.1024     13.9630
    93         C         12.1024     13.9630      1.1650
    94         C         13.2000     24.0026     10.1070
    95         C         22.9050      0.0674     22.1420
    96         C          5.9501     16.8875      4.0895
    97         C         18.4569     16.9453     20.5630
    98         C          3.5070      6.4219     19.1597
    99         C          2.5105     13.1422     12.4394
   100         C         20.5630     18.4569     16.9453
   101         C         19.1597      3.5070      6.4219
   102         C          1.1072     23.6656     21.5595
   103         C         16.9453     20.5630     18.4569
   104         C          6.4219     19.1597      3.5070
   105         C         13.1422     12.4394      2.5105
   106         C          5.6131      4.9103     15.5420
   107         C         22.9628     11.6306     14.5455
   108         C         21.5595      1.1072     23.6656
   109         C         11.6306     14.5455     22.9628
   110         C         14.5455     22.9628     11.6306
   111         C         10.9278      0.4044      9.5245
   112         C         17.6481      7.1247      8.5280
   113         C          7.1247      8.5280     17.6481
   114         C         15.5420      5.6131      4.9103
   115         C          4.9103     15.5420      5.6131
   116         C          0.4044      9.5245     10.9278
   117         C          9.5245     10.9278      0.4044
   118         C         12.4394      2.5105     13.1422
   119         C         23.6656     21.5595      1.1072
   120         C          8.5280     17.6481      7.1247
   121         C          2.1374     11.0674     10.5306
   122         C         23.1024      1.5044     21.9326
   123         C         11.0674     10.5306      2.1374
   124         C          0.9676     13.5394     14.1724
   125         C         21.9326     23.1024      1.5044
   126         C         13.5394     14.1724      0.9676
   127         C         14.1724      0.9676     13.5394
   128         C         13.0026     22.5656      9.8976
   129         C         22.5656      9.8976     13.0026
   130         C          9.8976     13.0026     22.5656
   131         C         10.5306      2.1374     11.0674
   132         C          1.5044     21.9326     23.1024
   133         C         23.2251     21.9904     23.9087
   134         C          0.1613     11.1901     14.1146
   135         C          5.8562      8.0971     17.2076
   136         C         23.9087     23.2251     21.9904
   137         C         14.1146      0.1613     11.1901
   138         C         20.1321     18.8974     18.2138
   139         C         21.9904     23.9087     23.2251
   140         C         11.1901     14.1146      0.1613
   141         C          8.0971     17.2076      5.8562
   142         C          0.8449      9.9554     12.1963
   143         C          3.9379      6.8624     17.8912
   144         C         18.2138     20.1321     18.8974
   145         C          6.8624     17.8912      3.9379
   146         C         17.8912      3.9379      6.8624
   147         C         15.9729      5.1726      6.1788
   148         C         12.8799      2.0796     11.8737
   149         C          2.0796     11.8737     12.8799
   150         C         12.1963      0.8449      9.9554
   151         C          9.9554     12.1963      0.8449
   152         C          5.1726      6.1788     15.9729
   153         C          6.1788     15.9729      5.1726
   154         C         17.2076      5.8562      8.0971
   155         C         18.8974     18.2138     20.1321
   156         C         11.8737     12.8799      2.0796
   157         C         17.1667     16.7912     21.0083
   158         C          3.0617      5.1317     19.3138
   159         C          2.9558     13.2963     11.1492
   160         C         21.0083     17.1667     16.7912
   161         C         19.3138      3.0617      5.1317
   162         C          1.2613      0.8858     21.1142
   163         C         16.7912     21.0083     17.1667
   164         C          5.1317     19.3138      3.0617
   165         C         13.2963     11.1492      2.9558
   166         C          6.9033      4.7562     15.0967
   167         C         22.8087     12.9208     14.9908
   168         C         21.1142      1.2613      0.8858
   169         C         12.9208     14.9908     22.8087
   170         C         14.9908     22.8087     12.9208
   171         C         10.7737     23.1842      9.0792
   172         C         18.9383      7.2788      8.9733
   173         C          7.2788      8.9733     18.9383
   174         C         15.0967      6.9033      4.7562
   175         C          4.7562     15.0967      6.9033
   176         C         23.1842      9.0792     10.7737
   177         C          9.0792     10.7737     23.1842
   178         C         11.1492      2.9558     13.2963
   179         C          0.8858     21.1142      1.2613
   180         C          8.9733     18.9383      7.2788
   181         C         16.1630     17.8142     20.7291
   182         C          3.3409      4.1280     18.2908
   183         C          2.6766     12.2733     10.1455
   184         C         20.7291     16.1630     17.8142
   185         C         18.2908      3.3409      4.1280
   186         C          0.2383      1.8895     21.3934
   187         C         17.8142     20.7291     16.1630
   188         C          4.1280     18.2908      3.3409
   189         C         12.2733     10.1455      2.6766
   190         C          7.9070      5.7792     15.3759
   191         C         23.8317     13.9245     14.7116
   192         C         21.3934      0.2383      1.8895
   193         C         13.9245     14.7116     23.8317
   194         C         14.7116     23.8317     13.9245
   195         C         11.7967     22.1805      9.3584
   196         C         19.9420      6.2558      8.6941
   197         C          6.2558      8.6941     19.9420
   198         C         15.3759      7.9070      5.7792
   199         C          5.7792     15.3759      7.9070
   200         C         22.1805      9.3584     11.7967
   201         C          9.3584     11.7967     22.1805
   202         C         10.1455      2.6766     12.2733
   203         C          1.8895     21.3934      0.2383
   204         C          8.6941     19.9420      6.2558
   205         C         19.2993     15.8910     20.0335
   206         C          4.0365      7.2643     20.2140
   207         C          1.9810     14.1965     13.2818
   208         C         20.0335     19.2993     15.8910
   209         C         20.2140      4.0365      7.2643
   210         C          2.1615     22.8232     22.0890
   211         C         15.8910     20.0335     19.2993
   212         C          7.2643     20.2140      4.0365
   213         C         14.1965     13.2818      1.9810
   214         C          4.7707      3.8560     16.0715
   215         C         21.9085     10.7882     14.0160
   216         C         22.0890      2.1615     22.8232
   217         C         10.7882     14.0160     21.9085
   218         C         14.0160     21.9085     10.7882
   219         C          9.8735      1.2468     10.0540
   220         C         16.8057      8.1790      7.9985
   221         C          8.1790      7.9985     16.8057
   222         C         16.0715      4.7707      3.8560
   223         C          3.8560     16.0715      4.7707
   224         C          1.2468     10.0540      9.8735
   225         C         10.0540      9.8735      1.2468
   226         C         13.2818      1.9810     14.1965
   227         C         22.8232     22.0890      2.1615
   228         C          7.9985     16.8057      8.1790
   229         C         14.7934     17.3039     20.8133
   230         C          3.2567      2.7584     18.8011
   231         C          2.7608     12.7836      8.7759
   232         C         20.8133     14.7934     17.3039
   233         C         18.8011      3.2567      2.7584
   234         C          0.7486      3.2591     21.3092
   235         C         17.3039     20.8133     14.7934
   236         C          2.7584     18.8011      3.2567
   237         C         12.7836      8.7759      2.7608
   238         C          9.2766      5.2689     15.2917
   239         C         23.3214     15.2941     14.7958
   240         C         21.3092      0.7486      3.2591
   241         C         15.2941     14.7958     23.3214
   242         C         14.7958     23.3214     15.2941
   243         C         11.2864     20.8109      9.2742
   244         C         21.3116      6.7661      8.7783
   245         C          6.7661      8.7783     21.3116
   246         C         15.2917      9.2766      5.2689
   247         C          5.2689     15.2917      9.2766
   248         C         20.8109      9.2742     11.2864
   249         C          9.2742     11.2864     20.8109
   250         C          8.7759      2.7608     12.7836
   251         C          3.2591     21.3092      0.7486
   252         C          8.7783     21.3116      6.7661
   253         C          3.4348     14.6105     10.8628
   254         C          2.5755      1.1722     20.6352
   255         C         14.6105     10.8628      3.4348
   256         C         21.4945     13.2072     15.4698
   257         C         20.6352      2.5755      1.1722
   258         C         13.2072     15.4698     21.4945
   259         C         15.4698     21.4945     13.2072
   260         C          9.4595     22.8978      8.6002
   261         C         22.8978      8.6002      9.4595
   262         C          8.6002      9.4595     22.8978
   263         C         10.8628      3.4348     14.6105
   264         C          1.1722     20.6352      2.5755
   265         B         16.5481     19.0201     20.1899
   266         B          3.8801      4.5131     17.0849
   267         B         20.1899     16.5481     19.0201
   268         B         17.0849      3.8801      4.5131
   269         B         19.0201     20.1899     16.5481
   270         B          4.5131     17.0849      3.8801
   271         B          7.5219      6.9851     15.9151
   272         B         19.5569      5.0499      8.1549
   273         B          5.0499      8.1549     19.5569
   274         B         15.9151      7.5219      6.9851
   275         B          6.9851     15.9151      7.5219
   276         B          8.1549     19.5569      5.0499
   277         B         16.8803     15.4770     21.4873
   278         B          2.5827      4.8453     20.6280
   279         B         21.4873     16.8803     15.4770
   280         B         20.6280      2.5827      4.8453
   281         B         15.4770     21.4873     16.8803
   282         B          4.8453     20.6280      2.5827
   283         B          7.1897      3.4420     14.6177
   284         B         19.2247      8.5930      9.4523
   285         B          8.5930      9.4523     19.2247
   286         B         14.6177      7.1897      3.4420
   287         B          3.4420     14.6177      7.1897
   288         B          9.4523     19.2247      8.5930
   289         H         13.4503     21.5980     17.5518
   290         H          6.5182      1.4153     14.5070
   291         H         23.5693      8.4895      7.4328
   292         H         17.5518     13.4503     21.5980
   293         H         14.5070      6.5182      1.4153
   294         H         20.5245      4.6022      0.5007
   295         H         21.5980     17.5518     13.4503
   296         H          1.4153     14.5070      6.5182
   297         H          8.4895      7.4328     23.5693
   298         H         10.6197      9.5630     18.5532
   299         H          3.5455     16.6372     11.5343
   300         H          0.5007     20.5245      4.6022
   301         H         16.6372     11.5343      3.5455
   302         H         11.5343      3.5455     16.6372
   303         H         15.5805     19.4678     12.5357
   304         H         22.6547      2.4720      5.5168
   305         H          2.4720      5.5168     22.6547
   306         H         18.5532     10.6197      9.5630
   307         H          9.5630     18.5532     10.6197
   308         H         19.4678     12.5357     15.5805
   309         H         12.5357     15.5805     19.4678
   310         H          7.4328     23.5693      8.4895
   311         H          4.6022      0.5007     20.5245
   312         H          5.5168     22.6547      2.4720
   313         H         13.7488     20.1273     19.4991
   314         H          4.5709      1.7138     15.9777
   315         H          1.4466      9.9602      7.7313
   316         H         19.4991     13.7488     20.1273
   317         H         15.9777      4.5709      1.7138
   318         H         21.9952      4.3037     22.6234
   319         H         20.1273     19.4991     13.7488
   320         H          1.7138     15.9777      4.5709
   321         H          9.9602      7.7313      1.4466
   322         H         10.3212      8.0923     16.6059
   323         H          2.0748     16.3387     13.4816
   324         H         22.6234     21.9952      4.3037
   325         H         16.3387     13.4816      2.0748
   326         H         13.4816      2.0748     16.3387
   327         H         14.1098     19.7663     10.5884
   328         H         22.3562      3.9427      7.4641
   329         H          3.9427      7.4641     22.3562
   330         H         16.6059     10.3212      8.0923
   331         H          8.0923     16.6059     10.3212
   332         H         19.7663     10.5884     14.1098
   333         H         10.5884     14.1098     19.7663
   334         H          7.7313      1.4466      9.9602
   335         H          4.3037     22.6234     21.9952
   336         H          7.4641     22.3562      3.9427
   337         H         14.0039     17.8985     20.3367
   338         H          3.7333      1.9689     18.2065
   339         H          2.2842     12.1890      7.9864
   340         H         20.3367     14.0039     17.8985
   341         H         18.2065      3.7333      1.9689
   342         H          0.1540      4.0486     21.7858
   343         H         17.8985     20.3367     14.0039
   344         H          1.9689     18.2065      3.7333
   345         H         12.1890      7.9864      2.2842
   346         H         10.0661      5.8635     15.7683
   347         H         23.9160     16.0836     14.3192
   348         H         21.7858      0.1540      4.0486
   349         H         16.0836     14.3192     23.9160
   350         H         14.3192     23.9160     16.0836
   351         H         11.8810     20.0214      9.7508
   352         H         22.1011      6.1715      8.3017
   353         H          6.1715      8.3017     22.1011
   354         H         15.7683     10.0661      5.8635
   355         H          5.8635     15.7683     10.0661
   356         H         20.0214      9.7508     11.8810
   357         H          9.7508     11.8810     20.0214
   358         H          7.9864      2.2842     12.1890
   359         H          4.0486     21.7858      0.1540
   360         H          8.3017     22.1011      6.1715

 General Reference for PM7:
 "Optimization of Parameters for Semiempirical Methods VI: More Modifications to the 
 NDDO Approximations and Re-optimization of Parameters", J. J. P. Stewart, J. Mol. Mod., 1:32, 19 (2013)
 https://link.springer.com/article/10.1007/s00894-012-1667-x

           Empirical Formula: C264 H72 B24  =   360 atoms



      RHF CALCULATION, NO. OF DOUBLY OCCUPIED LEVELS = 600


 -------------------------------------------------------------------------------
 PM7 CHARGE=0 NOOPT




     NO PARAMETERS MARKED FOR OPTIMIZATION, SO 1SCF WAS USED  
     SCF FIELD WAS ACHIEVED                                   


                              PM7 CALCULATION
                                                       MOPAC v22.1.0 Linux
                                                       Wed Jan 31 12:53:30 2024




          FINAL HEAT OF FORMATION =       2867.28337 KCAL/MOL =   11996.71364 KJ/MOL
          H.o.F. per unit cell    =        119.47014 KCAL, for 24 unit cells, unit cell = C11 H3 B1



          IONIZATION POTENTIAL    =          8.488162 EV
          HOMO LUMO ENERGIES (EV) =         -8.488 -4.148
          NO. OF FILLED LEVELS    =        600
          MOLECULAR WEIGHT        =       3502.9128

                   THE SYSTEM IS A SOLID


                UNIT CELL TRANSLATION VECTORS

              X                Y              Z
    T1 =    24.0700000      0.0000000      0.0000000
    T2 =     0.0000000     24.0700000      0.0000000
    T3 =     0.0000000      0.0000000     24.0700000

          VOLUME OF UNIT CELL     =      13945.313 CUBIC ANGSTROMS

          DENSITY                 =          0.417 GRAMS/CC
                              A   =         24.070 ANGSTROMS
                              B   =         24.070 ANGSTROMS
                              C   =         24.070 ANGSTROMS
                            ALPHA =         90.000 DEGREES
                            BETA  =         90.000 DEGREES
                            GAMMA =         90.000 DEGREES



          SCF CALCULATIONS        =          1

          WALL-CLOCK TIME         =     51.391 SECONDS
          COMPUTATION TIME        =     51.360 SECONDS




   ATOM   CHEMICAL          X               Y               Z
  NUMBER   SYMBOL      (ANGSTROMS)     (ANGSTROMS)     (ANGSTROMS)

     1       C         17.76606700     14.46125600     21.22974000   
     2       C          2.84026000      5.73106700     21.64374400   
     3       C          3.17724000     15.62624400     11.74856700   
     4       C         21.22974000     17.76606700     14.46125600   
     5       C         21.64374400      2.84026000      5.73106700   
     6       C          3.59124400      0.28643300     20.89276000   
     7       C         14.46125600     21.22974000     17.76606700   
     8       C          5.73106700     21.64374400      2.84026000   
     9       C         15.62624400     11.74856700      3.17724000   
    10       C          6.30393300      2.42625600     14.87526000   
    11       C         20.47875600     12.32143300     15.21224000   
    12       C         20.89276000      3.59124400      0.28643300   
    13       C         12.32143300     15.21224000     20.47875600   
    14       C         15.21224000     20.47875600     12.32143300   
    15       C          8.44375600     23.78356700      8.85776000   
    16       C         18.33893300      9.60874400      9.19474000   
    17       C          9.60874400      9.19474000     18.33893300   
    18       C         14.87526000      6.30393300      2.42625600   
    19       C          2.42625600     14.87526000      6.30393300   
    20       C         23.78356700      8.85776000      8.44375600   
    21       C          8.85776000      8.44375600     23.78356700   
    22       C         11.74856700      3.17724000     15.62624400   
    23       C          0.28643300     20.89276000      3.59124400   
    24       C          9.19474000     18.33893300      9.60874400   
    25       C         18.94068300     14.63696700     20.42098800   
    26       C          3.64901200      6.90568300     21.46803300   
    27       C          2.36848800     15.45053300     12.92318300   
    28       C         20.42098800     18.94068300     14.63696700   
    29       C         21.46803300      3.64901200      6.90568300   
    30       C          3.41553300     23.18181700     21.70151200   
    31       C         14.63696700     20.42098800     18.94068300   
    32       C          6.90568300     21.46803300      3.64901200   
    33       C         15.45053300     12.92318300      2.36848800   
    34       C          5.12931700      2.60196700     15.68401200   
    35       C         20.65446700     11.14681700     14.40348800   
    36       C         21.70151200      3.41553300     23.18181700   
    37       C         11.14681700     14.40348800     20.65446700   
    38       C         14.40348800     20.65446700     11.14681700   
    39       C          8.61946700      0.88818300      9.66651200   
    40       C         17.16431700      9.43303300      8.38598800   
    41       C          9.43303300      8.38598800     17.16431700   
    42       C         15.68401200      5.12931700      2.60196700   
    43       C          2.60196700     15.68401200      5.12931700   
    44       C          0.88818300      9.66651200      8.61946700   
    45       C          9.66651200      8.61946700      0.88818300   
    46       C         12.92318300      2.36848800     15.45053300   
    47       C         23.18181700     21.70151200      3.41553300   
    48       C          8.38598800     17.16431700      9.43303300   
    49       C         15.55884800     15.38313700     22.14199300   
    50       C          1.92800700      3.52384800     20.72186300   
    51       C          4.08949300     14.70436300      9.54134800   
    52       C         22.14199300     15.55884800     15.38313700   
    53       C         20.72186300      1.92800700      3.52384800   
    54       C          2.66936300      2.49365200     19.98050700   
    55       C         15.38313700     22.14199300     15.55884800   
    56       C          3.52384800     20.72186300      1.92800700   
    57       C         14.70436300      9.54134800      4.08949300   
    58       C          8.51115200      3.34813700     13.96300700   
    59       C         21.40063700     14.52865200     16.12449300   
    60       C         19.98050700      2.66936300      2.49365200   
    61       C         14.52865200     16.12449300     21.40063700   
    62       C         16.12449300     21.40063700     14.52865200   
    63       C          9.36563700     21.57634800      7.94550700   
    64       C         20.54615200      8.68686300     10.10699300   
    65       C          8.68686300     10.10699300     20.54615200   
    66       C         13.96300700      8.51115200      3.34813700   
    67       C          3.34813700     13.96300700      8.51115200   
    68       C         21.57634800      7.94550700      9.36563700   
    69       C          7.94550700      9.36563700     21.57634800   
    70       C          9.54134800      4.08949300     14.70436300   
    71       C          2.49365200     19.98050700      2.66936300   
    72       C         10.10699300     20.54615200      8.68686300   
    73       C         19.21748800     19.98050700     17.98510400   
    74       C          6.08489600      7.18248800     16.12449300   
    75       C         24.00260400     10.10699300     13.19998800   
    76       C         17.98510400     19.21748800     19.98050700   
    77       C         16.12449300      6.08489600      7.18248800   
    78       C         22.14199300     22.90501200      0.06739600   
    79       C         19.98050700     17.98510400     19.21748800   
    80       C          7.18248800     16.12449300      6.08489600   
    81       C         10.10699300     13.19998800     24.00260400   
    82       C          4.85251200      7.94550700     18.11989600   
    83       C          1.92800700     10.87001200     11.96760400   
    84       C          0.06739600     22.14199300     22.90501200   
    85       C         10.87001200     11.96760400      1.92800700   
    86       C         11.96760400      1.92800700     10.87001200   
    87       C         13.96300700      1.16498800     12.10239600   
    88       C         16.88751200      4.08949300      5.95010400   
    89       C          4.08949300      5.95010400     16.88751200   
    90       C         18.11989600      4.85251200      7.94550700   
    91       C          7.94550700     18.11989600      4.85251200   
    92       C          1.16498800     12.10239600     13.96300700   
    93       C         12.10239600     13.96300700      1.16498800   
    94       C         13.19998800     24.00260400     10.10699300   
    95       C         22.90501200      0.06739600     22.14199300   
    96       C          5.95010400     16.88751200      4.08949300   
    97       C         18.45687600     16.94528000     20.56300100   
    98       C          3.50699900      6.42187600     19.15972000   
    99       C          2.51050100     13.14222000     12.43937600   
   100       C         20.56300100     18.45687600     16.94528000   
   101       C         19.15972000      3.50699900      6.42187600   
   102       C          1.10722000     23.66562400     21.55949900   
   103       C         16.94528000     20.56300100     18.45687600   
   104       C          6.42187600     19.15972000      3.50699900   
   105       C         13.14222000     12.43937600      2.51050100   
   106       C          5.61312400      4.91028000     15.54199900   
   107       C         22.96278000     11.63062400     14.54550100   
   108       C         21.55949900      1.10722000     23.66562400   
   109       C         11.63062400     14.54550100     22.96278000   
   110       C         14.54550100     22.96278000     11.63062400   
   111       C         10.92778000      0.40437600      9.52449900   
   112       C         17.64812400      7.12472000      8.52800100   
   113       C          7.12472000      8.52800100     17.64812400   
   114       C         15.54199900      5.61312400      4.91028000   
   115       C          4.91028000     15.54199900      5.61312400   
   116       C          0.40437600      9.52449900     10.92778000   
   117       C          9.52449900     10.92778000      0.40437600   
   118       C         12.43937600      2.51050100     13.14222000   
   119       C         23.66562400     21.55949900      1.10722000   
   120       C          8.52800100     17.64812400      7.12472000   
   121       C          2.13741600     11.06738600     10.53062500   
   122       C         23.10238600      1.50437500     21.93258400   
   123       C         11.06738600     10.53062500      2.13741600   
   124       C          0.96761400     13.53937500     14.17241600   
   125       C         21.93258400     23.10238600      1.50437500   
   126       C         13.53937500     14.17241600      0.96761400   
   127       C         14.17241600      0.96761400     13.53937500   
   128       C         13.00261400     22.56562500      9.89758400   
   129       C         22.56562500      9.89758400     13.00261400   
   130       C          9.89758400     13.00261400     22.56562500   
   131       C         10.53062500      2.13741600     11.06738600   
   132       C          1.50437500     21.93258400     23.10238600   
   133       C         23.22514300     21.99035200     23.90873100   
   134       C          0.16126900     11.19014300     14.11464800   
   135       C          5.85623100      8.09714800     17.20764300   
   136       C         23.90873100     23.22514300     21.99035200   
   137       C         14.11464800      0.16126900     11.19014300   
   138       C         20.13214800     18.89735700     18.21376900   
   139       C         21.99035200     23.90873100     23.22514300   
   140       C         11.19014300     14.11464800      0.16126900   
   141       C          8.09714800     17.20764300      5.85623100   
   142       C          0.84485700      9.95535200     12.19626900   
   143       C          3.93785200      6.86235700     17.89123100   
   144       C         18.21376900     20.13214800     18.89735700   
   145       C          6.86235700     17.89123100      3.93785200   
   146       C         17.89123100      3.93785200      6.86235700   
   147       C         15.97285200      5.17264300      6.17876900   
   148       C         12.87985700      2.07964800     11.87373100   
   149       C          2.07964800     11.87373100     12.87985700   
   150       C         12.19626900      0.84485700      9.95535200   
   151       C          9.95535200     12.19626900      0.84485700   
   152       C          5.17264300      6.17876900     15.97285200   
   153       C          6.17876900     15.97285200      5.17264300   
   154       C         17.20764300      5.85623100      8.09714800   
   155       C         18.89735700     18.21376900     20.13214800   
   156       C         11.87373100     12.87985700      2.07964800   
   157       C         17.16672400     16.79123200     21.00829600   
   158       C          3.06170400      5.13172400     19.31376800   
   159       C          2.95579600     13.29626800     11.14922400   
   160       C         21.00829600     17.16672400     16.79123200   
   161       C         19.31376800      3.06170400      5.13172400   
   162       C          1.26126800      0.88577600     21.11420400   
   163       C         16.79123200     21.00829600     17.16672400   
   164       C          5.13172400     19.31376800      3.06170400   
   165       C         13.29626800     11.14922400      2.95579600   
   166       C          6.90327600      4.75623200     15.09670400   
   167       C         22.80873200     12.92077600     14.99079600   
   168       C         21.11420400      1.26126800      0.88577600   
   169       C         12.92077600     14.99079600     22.80873200   
   170       C         14.99079600     22.80873200     12.92077600   
   171       C         10.77373200     23.18422400      9.07920400   
   172       C         18.93827600      7.27876800      8.97329600   
   173       C          7.27876800      8.97329600     18.93827600   
   174       C         15.09670400      6.90327600      4.75623200   
   175       C          4.75623200     15.09670400      6.90327600   
   176       C         23.18422400      9.07920400     10.77373200   
   177       C          9.07920400     10.77373200     23.18422400   
   178       C         11.14922400      2.95579600     13.29626800   
   179       C          0.88577600     21.11420400      1.26126800   
   180       C          8.97329600     18.93827600      7.27876800   
   181       C         16.16300500     17.81420700     20.72908400   
   182       C          3.34091600      4.12800500     18.29079300   
   183       C          2.67658400     12.27329300     10.14550500   
   184       C         20.72908400     16.16300500     17.81420700   
   185       C         18.29079300      3.34091600      4.12800500   
   186       C          0.23829300      1.88949500     21.39341600   
   187       C         17.81420700     20.72908400     16.16300500   
   188       C          4.12800500     18.29079300      3.34091600   
   189       C         12.27329300     10.14550500      2.67658400   
   190       C          7.90699500      5.77920700     15.37591600   
   191       C         23.83170700     13.92449500     14.71158400   
   192       C         21.39341600      0.23829300      1.88949500   
   193       C         13.92449500     14.71158400     23.83170700   
   194       C         14.71158400     23.83170700     13.92449500   
   195       C         11.79670700     22.18050500      9.35841600   
   196       C         19.94199500      6.25579300      8.69408400   
   197       C          6.25579300      8.69408400     19.94199500   
   198       C         15.37591600      7.90699500      5.77920700   
   199       C          5.77920700     15.37591600      7.90699500   
   200       C         22.18050500      9.35841600     11.79670700   
   201       C          9.35841600     11.79670700     22.18050500   
   202       C         10.14550500      2.67658400     12.27329300   
   203       C          1.88949500     21.39341600      0.23829300   
   204       C          8.69408400     19.94199500      6.25579300   
   205       C         19.29932600     15.89101400     20.03346100   
   206       C          4.03653900      7.26432600     20.21398600   
   207       C          1.98096100     14.19648600     13.28182600   
   208       C         20.03346100     19.29932600     15.89101400   
   209       C         20.21398600      4.03653900      7.26432600   
   210       C          2.16148600     22.82317400     22.08903900   
   211       C         15.89101400     20.03346100     19.29932600   
   212       C          7.26432600     20.21398600      4.03653900   
   213       C         14.19648600     13.28182600      1.98096100   
   214       C          4.77067400      3.85601400     16.07153900   
   215       C         21.90851400     10.78817400     14.01596100   
   216       C         22.08903900      2.16148600     22.82317400   
   217       C         10.78817400     14.01596100     21.90851400   
   218       C         14.01596100     21.90851400     10.78817400   
   219       C          9.87351400      1.24682600     10.05403900   
   220       C         16.80567400      8.17898600      7.99846100   
   221       C          8.17898600      7.99846100     16.80567400   
   222       C         16.07153900      4.77067400      3.85601400   
   223       C          3.85601400     16.07153900      4.77067400   
   224       C          1.24682600     10.05403900      9.87351400   
   225       C         10.05403900      9.87351400      1.24682600   
   226       C         13.28182600      1.98096100     14.19648600   
   227       C         22.82317400     22.08903900      2.16148600   
   228       C          7.99846100     16.80567400      8.17898600   
   229       C         14.79342200     17.30392300     20.81332900   
   230       C          3.25667100      2.75842200     18.80107700   
   231       C          2.76082900     12.78357700      8.77592200   
   232       C         20.81332900     14.79342200     17.30392300   
   233       C         18.80107700      3.25667100      2.75842200   
   234       C          0.74857700      3.25907800     21.30917100   
   235       C         17.30392300     20.81332900     14.79342200   
   236       C          2.75842200     18.80107700      3.25667100   
   237       C         12.78357700      8.77592200      2.76082900   
   238       C          9.27657800      5.26892300     15.29167100   
   239       C         23.32142300     15.29407800     14.79582900   
   240       C         21.30917100      0.74857700      3.25907800   
   241       C         15.29407800     14.79582900     23.32142300   
   242       C         14.79582900     23.32142300     15.29407800   
   243       C         11.28642300     20.81092200      9.27417100   
   244       C         21.31157800      6.76607700      8.77832900   
   245       C          6.76607700      8.77832900     21.31157800   
   246       C         15.29167100      9.27657800      5.26892300   
   247       C          5.26892300     15.29167100      9.27657800   
   248       C         20.81092200      9.27417100     11.28642300   
   249       C          9.27417100     11.28642300     20.81092200   
   250       C          8.77592200      2.76082900     12.78357700   
   251       C          3.25907800     21.30917100      0.74857700   
   252       C          8.77832900     21.31157800      6.76607700   
   253       C          3.43478900     14.61049000     10.86279100   
   254       C          2.57549000      1.17220900     20.63521100   
   255       C         14.61049000     10.86279100      3.43478900   
   256       C         21.49451000     13.20720900     15.46978900   
   257       C         20.63521100      2.57549000      1.17220900   
   258       C         13.20720900     15.46978900     21.49451000   
   259       C         15.46978900     21.49451000     13.20720900   
   260       C          9.45951000     22.89779100      8.60021100   
   261       C         22.89779100      8.60021100      9.45951000   
   262       C          8.60021100      9.45951000     22.89779100   
   263       C         10.86279100      3.43478900     14.61049000   
   264       C          1.17220900     20.63521100      2.57549000   
   265       B         16.54812500     19.02011400     20.18991600   
   266       B          3.88008400      4.51312500     17.08488600   
   267       B         20.18991600     16.54812500     19.02011400   
   268       B         17.08488600      3.88008400      4.51312500   
   269       B         19.02011400     20.18991600     16.54812500   
   270       B          4.51312500     17.08488600      3.88008400   
   271       B          7.52187500      6.98511400     15.91508400   
   272       B         19.55687500      5.04988600      8.15491600   
   273       B          5.04988600      8.15491600     19.55687500   
   274       B         15.91508400      7.52187500      6.98511400   
   275       B          6.98511400     15.91508400      7.52187500   
   276       B          8.15491600     19.55687500      5.04988600   
   277       B         16.88029100     15.47701000     21.48728900   
   278       B          2.58271100      4.84529100     20.62799000   
   279       B         21.48728900     16.88029100     15.47701000   
   280       B         20.62799000      2.58271100      4.84529100   
   281       B         15.47701000     21.48728900     16.88029100   
   282       B          4.84529100     20.62799000      2.58271100   
   283       B          7.18970900      3.44201000     14.61771100   
   284       B         19.22470900      8.59299000      9.45228900   
   285       B          8.59299000      9.45228900     19.22470900   
   286       B         14.61771100      7.18970900      3.44201000   
   287       B          3.44201000     14.61771100      7.18970900   
   288       B          9.45228900     19.22470900      8.59299000   
   289       H         13.45031600     21.59801100     17.55184400   
   290       H          6.51815600      1.41531600     14.50698900   
   291       H         23.56934400      8.48948900      7.43281600   
   292       H         17.55184400     13.45031600     21.59801100   
   293       H         14.50698900      6.51815600      1.41531600   
   294       H         20.52448900      4.60218400      0.50065600   
   295       H         21.59801100     17.55184400     13.45031600   
   296       H          1.41531600     14.50698900      6.51815600   
   297       H          8.48948900      7.43281600     23.56934400   
   298       H         10.61968400      9.56301100     18.55315600   
   299       H          3.54551100     16.63718400     11.53434400   
   300       H          0.50065600     20.52448900      4.60218400   
   301       H         16.63718400     11.53434400      3.54551100   
   302       H         11.53434400      3.54551100     16.63718400   
   303       H         15.58051100     19.46781600     12.53565600   
   304       H         22.65468400      2.47198900      5.51684400   
   305       H          2.47198900      5.51684400     22.65468400   
   306       H         18.55315600     10.61968400      9.56301100   
   307       H          9.56301100     18.55315600     10.61968400   
   308       H         19.46781600     12.53565600     15.58051100   
   309       H         12.53565600     15.58051100     19.46781600   
   310       H          7.43281600     23.56934400      8.48948900   
   311       H          4.60218400      0.50065600     20.52448900   
   312       H          5.51684400     22.65468400      2.47198900   
   313       H         13.74878400     20.12733400     19.49910700   
   314       H          4.57089300      1.71378400     15.97766600   
   315       H          1.44660700      9.96016600      7.73128400   
   316       H         19.49910700     13.74878400     20.12733400   
   317       H         15.97766600      4.57089300      1.71378400   
   318       H         21.99516600      4.30371600     22.62339300   
   319       H         20.12733400     19.49910700     13.74878400   
   320       H          1.71378400     15.97766600      4.57089300   
   321       H          9.96016600      7.73128400      1.44660700   
   322       H         10.32121600      8.09233400     16.60589300   
   323       H          2.07483400     16.33871600     13.48160700   
   324       H         22.62339300     21.99516600      4.30371600   
   325       H         16.33871600     13.48160700      2.07483400   
   326       H         13.48160700      2.07483400     16.33871600   
   327       H         14.10983400     19.76628400     10.58839300   
   328       H         22.35621600      3.94266600      7.46410700   
   329       H          3.94266600      7.46410700     22.35621600   
   330       H         16.60589300     10.32121600      8.09233400   
   331       H          8.09233400     16.60589300     10.32121600   
   332       H         19.76628400     10.58839300     14.10983400   
   333       H         10.58839300     14.10983400     19.76628400   
   334       H          7.73128400      1.44660700      9.96016600   
   335       H          4.30371600     22.62339300     21.99516600   
   336       H          7.46410700     22.35621600      3.94266600   
   337       H         14.00392600     17.89845200     20.33674300   
   338       H          3.73325700      1.96892600     18.20654800   
   339       H          2.28424300     12.18904800      7.98642600   
   340       H         20.33674300     14.00392600     17.89845200   
   341       H         18.20654800      3.73325700      1.96892600   
   342       H          0.15404800      4.04857400     21.78575700   
   343       H         17.89845200     20.33674300     14.00392600   
   344       H          1.96892600     18.20654800      3.73325700   
   345       H         12.18904800      7.98642600      2.28424300   
   346       H         10.06607400      5.86345200     15.76825700   
   347       H         23.91595200     16.08357400     14.31924300   
   348       H         21.78575700      0.15404800      4.04857400   
   349       H         16.08357400     14.31924300     23.91595200   
   350       H         14.31924300     23.91595200     16.08357400   
   351       H         11.88095200     20.02142600      9.75075700   
   352       H         22.10107400      6.17154800      8.30174300   
   353       H          6.17154800      8.30174300     22.10107400   
   354       H         15.76825700     10.06607400      5.86345200   
   355       H          5.86345200     15.76825700     10.06607400   
   356       H         20.02142600      9.75075700     11.88095200   
   357       H          9.75075700     11.88095200     20.02142600   
   358       H          7.98642600      2.28424300     12.18904800   
   359       H          4.04857400     21.78575700      0.15404800   
   360       H          8.30174300     22.10107400      6.17154800   
   361      Tv         24.07000000      0.00000000      0.00000000   
   362      Tv          0.00000000     24.07000000      0.00000000   
   363      Tv          0.00000000      0.00000000     24.07000000   

                             CARTESIAN COORDINATES

   1    C       17.766067000    14.461256000    21.229740000
   2    C        2.840260000     5.731067000    21.643744000
   3    C        3.177240000    15.626244000    11.748567000
   4    C       21.229740000    17.766067000    14.461256000
   5    C       21.643744000     2.840260000     5.731067000
   6    C        3.591244000     0.286433000    20.892760000
   7    C       14.461256000    21.229740000    17.766067000
   8    C        5.731067000    21.643744000     2.840260000
   9    C       15.626244000    11.748567000     3.177240000
  10    C        6.303933000     2.426256000    14.875260000
  11    C       20.478756000    12.321433000    15.212240000
  12    C       20.892760000     3.591244000     0.286433000
  13    C       12.321433000    15.212240000    20.478756000
  14    C       15.212240000    20.478756000    12.321433000
  15    C        8.443756000    23.783567000     8.857760000
  16    C       18.338933000     9.608744000     9.194740000
  17    C        9.608744000     9.194740000    18.338933000
  18    C       14.875260000     6.303933000     2.426256000
  19    C        2.426256000    14.875260000     6.303933000
  20    C       23.783567000     8.857760000     8.443756000
  21    C        8.857760000     8.443756000    23.783567000
  22    C       11.748567000     3.177240000    15.626244000
  23    C        0.286433000    20.892760000     3.591244000
  24    C        9.194740000    18.338933000     9.608744000
  25    C       18.940683000    14.636967000    20.420988000
  26    C        3.649012000     6.905683000    21.468033000
  27    C        2.368488000    15.450533000    12.923183000
  28    C       20.420988000    18.940683000    14.636967000
  29    C       21.468033000     3.649012000     6.905683000
  30    C        3.415533000    23.181817000    21.701512000
  31    C       14.636967000    20.420988000    18.940683000
  32    C        6.905683000    21.468033000     3.649012000
  33    C       15.450533000    12.923183000     2.368488000
  34    C        5.129317000     2.601967000    15.684012000
  35    C       20.654467000    11.146817000    14.403488000
  36    C       21.701512000     3.415533000    23.181817000
  37    C       11.146817000    14.403488000    20.654467000
  38    C       14.403488000    20.654467000    11.146817000
  39    C        8.619467000     0.888183000     9.666512000
  40    C       17.164317000     9.433033000     8.385988000
  41    C        9.433033000     8.385988000    17.164317000
  42    C       15.684012000     5.129317000     2.601967000
  43    C        2.601967000    15.684012000     5.129317000
  44    C        0.888183000     9.666512000     8.619467000
  45    C        9.666512000     8.619467000     0.888183000
  46    C       12.923183000     2.368488000    15.450533000
  47    C       23.181817000    21.701512000     3.415533000
  48    C        8.385988000    17.164317000     9.433033000
  49    C       15.558848000    15.383137000    22.141993000
  50    C        1.928007000     3.523848000    20.721863000
  51    C        4.089493000    14.704363000     9.541348000
  52    C       22.141993000    15.558848000    15.383137000
  53    C       20.721863000     1.928007000     3.523848000
  54    C        2.669363000     2.493652000    19.980507000
  55    C       15.383137000    22.141993000    15.558848000
  56    C        3.523848000    20.721863000     1.928007000
  57    C       14.704363000     9.541348000     4.089493000
  58    C        8.511152000     3.348137000    13.963007000
  59    C       21.400637000    14.528652000    16.124493000
  60    C       19.980507000     2.669363000     2.493652000
  61    C       14.528652000    16.124493000    21.400637000
  62    C       16.124493000    21.400637000    14.528652000
  63    C        9.365637000    21.576348000     7.945507000
  64    C       20.546152000     8.686863000    10.106993000
  65    C        8.686863000    10.106993000    20.546152000
  66    C       13.963007000     8.511152000     3.348137000
  67    C        3.348137000    13.963007000     8.511152000
  68    C       21.576348000     7.945507000     9.365637000
  69    C        7.945507000     9.365637000    21.576348000
  70    C        9.541348000     4.089493000    14.704363000
  71    C        2.493652000    19.980507000     2.669363000
  72    C       10.106993000    20.546152000     8.686863000
  73    C       19.217488000    19.980507000    17.985104000
  74    C        6.084896000     7.182488000    16.124493000
[...]
  293          H           0.131984        0.8680     0.86802
  294          H           0.164420        0.8356     0.83558
  295          H           0.131984        0.8680     0.86802
  296          H           0.131984        0.8680     0.86802
  297          H           0.164420        0.8356     0.83558
  298          H           0.131984        0.8680     0.86802
  299          H           0.164420        0.8356     0.83558
  300          H           0.164420        0.8356     0.83558
  301          H           0.164420        0.8356     0.83558
  302          H           0.164420        0.8356     0.83558
  303          H           0.164420        0.8356     0.83558
  304          H           0.131984        0.8680     0.86802
  305          H           0.131984        0.8680     0.86802
  306          H           0.131984        0.8680     0.86802
  307          H           0.131984        0.8680     0.86802
  308          H           0.164420        0.8356     0.83558
  309          H           0.164420        0.8356     0.83558
  310          H           0.164420        0.8356     0.83558
  311          H           0.164420        0.8356     0.83558
  312          H           0.131984        0.8680     0.86802
  313          H           0.143257        0.8567     0.85674
  314          H           0.143257        0.8567     0.85674
  315          H           0.168515        0.8315     0.83148
  316          H           0.143257        0.8567     0.85674
  317          H           0.143257        0.8567     0.85674
  318          H           0.168515        0.8315     0.83148
  319          H           0.143257        0.8567     0.85674
  320          H           0.143257        0.8567     0.85674
  321          H           0.168515        0.8315     0.83148
  322          H           0.143257        0.8567     0.85674
  323          H           0.168515        0.8315     0.83148
  324          H           0.168515        0.8315     0.83148
  325          H           0.168515        0.8315     0.83148
  326          H           0.168515        0.8315     0.83148
  327          H           0.168515        0.8315     0.83148
  328          H           0.143257        0.8567     0.85674
  329          H           0.143257        0.8567     0.85674
  330          H           0.143257        0.8567     0.85674
  331          H           0.143257        0.8567     0.85674
  332          H           0.168515        0.8315     0.83148
  333          H           0.168515        0.8315     0.83148
  334          H           0.168515        0.8315     0.83148
  335          H           0.168515        0.8315     0.83148
  336          H           0.143257        0.8567     0.85674
  337          H           0.178556        0.8214     0.82144
  338          H           0.178556        0.8214     0.82144
  339          H           0.171615        0.8284     0.82839
  340          H           0.178556        0.8214     0.82144
  341          H           0.178556        0.8214     0.82144
  342          H           0.171615        0.8284     0.82839
  343          H           0.178556        0.8214     0.82144
  344          H           0.178556        0.8214     0.82144
  345          H           0.171615        0.8284     0.82839
  346          H           0.178556        0.8214     0.82144
  347          H           0.171615        0.8284     0.82839
  348          H           0.171615        0.8284     0.82839
  349          H           0.171615        0.8284     0.82839
  350          H           0.171615        0.8284     0.82839
  351          H           0.171615        0.8284     0.82839
  352          H           0.178556        0.8214     0.82144
  353          H           0.178556        0.8214     0.82144
  354          H           0.178556        0.8214     0.82144
  355          H           0.178556        0.8214     0.82144
  356          H           0.171615        0.8284     0.82839
  357          H           0.171615        0.8284     0.82839
  358          H           0.171615        0.8284     0.82839
  359          H           0.171615        0.8284     0.82839
  360          H           0.178556        0.8214     0.82144


          ATOMIC ORBITAL ELECTRON POPULATIONS

     Atom    s        px        py        pz   
    1  C   1.10224   0.98140   1.12380   0.98173
    2  C   1.10224   0.98173   0.98140   1.12380
    3  C   1.08880   0.98377   1.07090   0.97026
    4  C   1.10224   0.98173   0.98140   1.12380
    5  C   1.10224   1.12380   0.98173   0.98140
    6  C   1.08880   1.07090   0.97026   0.98377
    7  C   1.10224   1.12380   0.98173   0.98140
    8  C   1.10224   0.98140   1.12380   0.98173
    9  C   1.08880   1.07090   0.97026   0.98377
   10  C   1.10224   0.98140   1.12380   0.98173
   11  C   1.08880   1.07090   0.97026   0.98377
   12  C   1.08880   0.98377   1.07090   0.97026
   13  C   1.08880   0.97026   0.98377   1.07090
   14  C   1.08880   0.98377   1.07090   0.97026
   15  C   1.08880   1.07090   0.97026   0.98377
   16  C   1.10224   0.98140   1.12380   0.98173
   17  C   1.10224   1.12380   0.98173   0.98140
   18  C   1.10224   0.98173   0.98140   1.12380
   19  C   1.10224   1.12380   0.98173   0.98140
   20  C   1.08880   0.97026   0.98377   1.07090
   21  C   1.08880   0.98377   1.07090   0.97026
   22  C   1.08880   0.97026   0.98377   1.07090
   23  C   1.08880   0.97026   0.98377   1.07090
   24  C   1.10224   0.98173   0.98140   1.12380
   25  C   1.10098   0.96951   1.03778   0.93293
   26  C   1.10098   0.93293   0.96951   1.03778
   27  C   1.08369   0.99861   1.04850   1.00377
   28  C   1.10098   0.93293   0.96951   1.03778
   29  C   1.10098   1.03778   0.93293   0.96951
   30  C   1.08369   1.04850   1.00377   0.99861
   31  C   1.10098   1.03778   0.93293   0.96951
   32  C   1.10098   0.96951   1.03778   0.93293
   33  C   1.08369   1.04850   1.00377   0.99861
   34  C   1.10098   0.96951   1.03778   0.93293
   35  C   1.08369   1.04850   1.00377   0.99861
   36  C   1.08369   0.99861   1.04850   1.00377
   37  C   1.08369   1.00377   0.99861   1.04850
   38  C   1.08369   0.99861   1.04850   1.00377
   39  C   1.08369   1.04850   1.00377   0.99861
   40  C   1.10098   0.96951   1.03778   0.93293
   41  C   1.10098   1.03778   0.93293   0.96951
   42  C   1.10098   0.93293   0.96951   1.03778
   43  C   1.10098   1.03778   0.93293   0.96951
   44  C   1.08369   1.00377   0.99861   1.04850
   45  C   1.08369   0.99861   1.04850   1.00377
   46  C   1.08369   1.00377   0.99861   1.04850
   47  C   1.08369   1.00377   0.99861   1.04850
   48  C   1.10098   0.93293   0.96951   1.03778
   49  C   1.08924   1.05299   0.93166   0.96916
   50  C   1.08924   0.96916   1.05299   0.93166
   51  C   1.09298   0.93454   0.85270   0.95486
   52  C   1.08924   0.96916   1.05299   0.93166
   53  C   1.08924   0.93166   0.96916   1.05299
   54  C   1.09298   0.85270   0.95486   0.93454
   55  C   1.08924   0.93166   0.96916   1.05299
   56  C   1.08924   1.05299   0.93166   0.96916
   57  C   1.09298   0.85270   0.95486   0.93454
   58  C   1.08924   1.05299   0.93166   0.96916
   59  C   1.09298   0.85270   0.95486   0.93454
   60  C   1.09298   0.93454   0.85270   0.95486
   61  C   1.09298   0.95486   0.93454   0.85270
   62  C   1.09298   0.93454   0.85270   0.95486
   63  C   1.09298   0.85270   0.95486   0.93454
   64  C   1.08924   1.05299   0.93166   0.96916
   65  C   1.08924   0.93166   0.96916   1.05299
   66  C   1.08924   0.96916   1.05299   0.93166
   67  C   1.08924   0.93166   0.96916   1.05299
   68  C   1.09298   0.95486   0.93454   0.85270
   69  C   1.09298   0.93454   0.85270   0.95486
   70  C   1.09298   0.95486   0.93454   0.85270
   71  C   1.09298   0.95486   0.93454   0.85270
   72  C   1.08924   0.96916   1.05299   0.93166
   73  C   1.08240   0.97903   1.00646   1.01204
   74  C   1.08240   1.01204   0.97903   1.00646
   75  C   1.06946   0.96242   0.98107   0.97944
   76  C   1.08240   1.01204   0.97903   1.00646
   77  C   1.08240   1.00646   1.01204   0.97903
   78  C   1.06946   0.98107   0.97944   0.96242
   79  C   1.08240   1.00646   1.01204   0.97903
   80  C   1.08240   0.97903   1.00646   1.01204
   81  C   1.06946   0.98107   0.97944   0.96242
   82  C   1.08240   0.97903   1.00646   1.01204
   83  C   1.06946   0.98107   0.97944   0.96242
   84  C   1.06946   0.96242   0.98107   0.97944
   85  C   1.06946   0.97944   0.96242   0.98107
   86  C   1.06946   0.96242   0.98107   0.97944
   87  C   1.06946   0.98107   0.97944   0.96242
   88  C   1.08240   0.97903   1.00646   1.01204
   89  C   1.08240   1.00646   1.01204   0.97903
   90  C   1.08240   1.01204   0.97903   1.00646
   91  C   1.08240   1.00646   1.01204   0.97903
   92  C   1.06946   0.97944   0.96242   0.98107
   93  C   1.06946   0.96242   0.98107   0.97944
   94  C   1.06946   0.97944   0.96242   0.98107
   95  C   1.06946   0.97944   0.96242   0.98107
   96  C   1.08240   1.01204   0.97903   1.00646
   97  C   1.09036   0.96785   0.97461   0.85726
   98  C   1.09036   0.85726   0.96785   0.97461
   99  C   1.06517   1.00314   0.98372   0.98602
  100  C   1.09036   0.85726   0.96785   0.97461
  101  C   1.09036   0.97461   0.85726   0.96785
  102  C   1.06517   0.98372   0.98602   1.00314
  103  C   1.09036   0.97461   0.85726   0.96785
  104  C   1.09036   0.96785   0.97461   0.85726
  105  C   1.06517   0.98372   0.98602   1.00314
  106  C   1.09036   0.96785   0.97461   0.85726
  107  C   1.06517   0.98372   0.98602   1.00314
  108  C   1.06517   1.00314   0.98372   0.98602
  109  C   1.06517   0.98602   1.00314   0.98372
  110  C   1.06517   1.00314   0.98372   0.98602
  111  C   1.06517   0.98372   0.98602   1.00314
  112  C   1.09036   0.96785   0.97461   0.85726
  113  C   1.09036   0.97461   0.85726   0.96785
  114  C   1.09036   0.85726   0.96785   0.97461
  115  C   1.09036   0.97461   0.85726   0.96785
  116  C   1.06517   0.98602   1.00314   0.98372
  117  C   1.06517   1.00314   0.98372   0.98602
  118  C   1.06517   0.98602   1.00314   0.98372
  119  C   1.06517   0.98602   1.00314   0.98372
  120  C   1.09036   0.85726   0.96785   0.97461
  121  C   1.07645   0.98524   0.96880   0.96577
  122  C   1.07645   0.96880   0.96577   0.98524
  123  C   1.07645   0.96880   0.96577   0.98524
  124  C   1.07645   0.96880   0.96577   0.98524
  125  C   1.07645   0.98524   0.96880   0.96577
  126  C   1.07645   0.96577   0.98524   0.96880
  127  C   1.07645   0.98524   0.96880   0.96577
  128  C   1.07645   0.96880   0.96577   0.98524
  129  C   1.07645   0.96577   0.98524   0.96880
  130  C   1.07645   0.98524   0.96880   0.96577
  131  C   1.07645   0.96577   0.98524   0.96880
  132  C   1.07645   0.96577   0.98524   0.96880
  133  C   1.05758   0.98553   0.99622   0.97891
  134  C   1.05758   0.97891   0.98553   0.99622
  135  C   1.07640   0.98447   0.95019   0.97581
  136  C   1.05758   0.97891   0.98553   0.99622
  137  C   1.05758   0.99622   0.97891   0.98553
  138  C   1.07640   0.95019   0.97581   0.98447
  139  C   1.05758   0.99622   0.97891   0.98553
  140  C   1.05758   0.98553   0.99622   0.97891
  141  C   1.07640   0.95019   0.97581   0.98447
  142  C   1.05758   0.98553   0.99622   0.97891
  143  C   1.07640   0.95019   0.97581   0.98447
  144  C   1.07640   0.98447   0.95019   0.97581
  145  C   1.07640   0.97581   0.98447   0.95019
  146  C   1.07640   0.98447   0.95019   0.97581
  147  C   1.07640   0.95019   0.97581   0.98447
  148  C   1.05758   0.98553   0.99622   0.97891
  149  C   1.05758   0.99622   0.97891   0.98553
  150  C   1.05758   0.97891   0.98553   0.99622
  151  C   1.05758   0.99622   0.97891   0.98553
  152  C   1.07640   0.97581   0.98447   0.95019
  153  C   1.07640   0.98447   0.95019   0.97581
  154  C   1.07640   0.97581   0.98447   0.95019
  155  C   1.07640   0.97581   0.98447   0.95019
  156  C   1.05758   0.97891   0.98553   0.99622
  157  C   1.07800   0.97857   1.05480   1.02195
  158  C   1.07800   1.02195   0.97857   1.05480
  159  C   1.06100   1.00413   0.97836   0.97347
  160  C   1.07800   1.02195   0.97857   1.05480
  161  C   1.07800   1.05480   1.02195   0.97857
  162  C   1.06100   0.97836   0.97347   1.00413
  163  C   1.07800   1.05480   1.02195   0.97857
  164  C   1.07800   0.97857   1.05480   1.02195
  165  C   1.06100   0.97836   0.97347   1.00413
  166  C   1.07800   0.97857   1.05480   1.02195
  167  C   1.06100   0.97836   0.97347   1.00413
  168  C   1.06100   1.00413   0.97836   0.97347
  169  C   1.06100   0.97347   1.00413   0.97836
  170  C   1.06100   1.00413   0.97836   0.97347
  171  C   1.06100   0.97836   0.97347   1.00413
  172  C   1.07800   0.97857   1.05480   1.02195
  173  C   1.07800   1.05480   1.02195   0.97857
  174  C   1.07800   1.02195   0.97857   1.05480
  175  C   1.07800   1.05480   1.02195   0.97857
  176  C   1.06100   0.97347   1.00413   0.97836
  177  C   1.06100   1.00413   0.97836   0.97347
  178  C   1.06100   0.97347   1.00413   0.97836
  179  C   1.06100   0.97347   1.00413   0.97836
  180  C   1.07800   1.02195   0.97857   1.05480
  181  C   1.13453   0.95549   0.98734   0.69950
  182  C   1.13453   0.69950   0.95549   0.98734
  183  C   1.06951   0.98742   0.95521   0.98061
  184  C   1.13453   0.69950   0.95549   0.98734
  185  C   1.13453   0.98734   0.69950   0.95549
  186  C   1.06951   0.95521   0.98061   0.98742
  187  C   1.13453   0.98734   0.69950   0.95549
  188  C   1.13453   0.95549   0.98734   0.69950
  189  C   1.06951   0.95521   0.98061   0.98742
  190  C   1.13453   0.95549   0.98734   0.69950
  191  C   1.06951   0.95521   0.98061   0.98742
  192  C   1.06951   0.98742   0.95521   0.98061
  193  C   1.06951   0.98061   0.98742   0.95521
  194  C   1.06951   0.98742   0.95521   0.98061
  195  C   1.06951   0.95521   0.98061   0.98742
  196  C   1.13453   0.95549   0.98734   0.69950
  197  C   1.13453   0.98734   0.69950   0.95549
  198  C   1.13453   0.69950   0.95549   0.98734
  199  C   1.13453   0.98734   0.69950   0.95549
  200  C   1.06951   0.98061   0.98742   0.95521
  201  C   1.06951   0.98742   0.95521   0.98061
  202  C   1.06951   0.98061   0.98742   0.95521
  203  C   1.06951   0.98061   0.98742   0.95521
  204  C   1.13453   0.69950   0.95549   0.98734
  205  C   1.09035   1.04181   0.97835   1.00625
  206  C   1.09035   1.00625   1.04181   0.97835
  207  C   1.07168   0.96327   0.97514   0.96768
  208  C   1.09035   1.00625   1.04181   0.97835
  209  C   1.09035   0.97835   1.00625   1.04181
  210  C   1.07168   0.97514   0.96768   0.96327
  211  C   1.09035   0.97835   1.00625   1.04181
  212  C   1.09035   1.04181   0.97835   1.00625
  213  C   1.07168   0.97514   0.96768   0.96327
  214  C   1.09035   1.04181   0.97835   1.00625
  215  C   1.07168   0.97514   0.96768   0.96327
  216  C   1.07168   0.96327   0.97514   0.96768
  217  C   1.07168   0.96768   0.96327   0.97514
  218  C   1.07168   0.96327   0.97514   0.96768
  219  C   1.07168   0.97514   0.96768   0.96327
  220  C   1.09035   1.04181   0.97835   1.00625
  221  C   1.09035   0.97835   1.00625   1.04181
  222  C   1.09035   1.00625   1.04181   0.97835
  223  C   1.09035   0.97835   1.00625   1.04181
  224  C   1.07168   0.96768   0.96327   0.97514
  225  C   1.07168   0.96327   0.97514   0.96768
  226  C   1.07168   0.96768   0.96327   0.97514
  227  C   1.07168   0.96768   0.96327   0.97514
  228  C   1.09035   1.00625   1.04181   0.97835
  229  C   1.08914   1.06257   1.03873   1.08143
  230  C   1.08914   1.08143   1.06257   1.03873
  231  C   1.09388   0.96305   1.03818   1.00511
  232  C   1.08914   1.08143   1.06257   1.03873
  233  C   1.08914   1.03873   1.08143   1.06257
  234  C   1.09388   1.03818   1.00511   0.96305
  235  C   1.08914   1.03873   1.08143   1.06257
  236  C   1.08914   1.06257   1.03873   1.08143
  237  C   1.09388   1.03818   1.00511   0.96305
  238  C   1.08914   1.06257   1.03873   1.08143
  239  C   1.09388   1.03818   1.00511   0.96305
  240  C   1.09388   0.96305   1.03818   1.00511
  241  C   1.09388   1.00511   0.96305   1.03818
  242  C   1.09388   0.96305   1.03818   1.00511
  243  C   1.09388   1.03818   1.00511   0.96305
  244  C   1.08914   1.06257   1.03873   1.08143
  245  C   1.08914   1.03873   1.08143   1.06257
  246  C   1.08914   1.08143   1.06257   1.03873
  247  C   1.08914   1.03873   1.08143   1.06257
  248  C   1.09388   1.00511   0.96305   1.03818
  249  C   1.09388   0.96305   1.03818   1.00511
  250  C   1.09388   1.00511   0.96305   1.03818
  251  C   1.09388   1.00511   0.96305   1.03818
  252  C   1.08914   1.08143   1.06257   1.03873
  253  C   1.06693   1.02134   0.98429   0.98133
  254  C   1.06693   0.98429   0.98133   1.02134
  255  C   1.06693   0.98429   0.98133   1.02134
  256  C   1.06693   0.98429   0.98133   1.02134
  257  C   1.06693   1.02134   0.98429   0.98133
  258  C   1.06693   0.98133   1.02134   0.98429
  259  C   1.06693   1.02134   0.98429   0.98133
  260  C   1.06693   0.98429   0.98133   1.02134
  261  C   1.06693   0.98133   1.02134   0.98429
  262  C   1.06693   1.02134   0.98429   0.98133
  263  C   1.06693   0.98133   1.02134   0.98429
  264  C   1.06693   0.98133   1.02134   0.98429
  265  B   0.66579   0.97385   0.80605   0.52561
  266  B   0.66579   0.52561   0.97385   0.80605
  267  B   0.66579   0.52561   0.97385   0.80605
  268  B   0.66579   0.80605   0.52561   0.97385
  269  B   0.66579   0.80605   0.52561   0.97385
  270  B   0.66579   0.97385   0.80605   0.52561
  271  B   0.66579   0.97385   0.80605   0.52561
  272  B   0.66579   0.97385   0.80605   0.52561
  273  B   0.66579   0.80605   0.52561   0.97385
  274  B   0.66579   0.52561   0.97385   0.80605
  275  B   0.66579   0.80605   0.52561   0.97385
  276  B   0.66579   0.52561   0.97385   0.80605
  277  B   0.62591   0.89914   0.95624   0.70672
  278  B   0.62591   0.70672   0.89914   0.95624
  279  B   0.62591   0.70672   0.89914   0.95624
  280  B   0.62591   0.95624   0.70672   0.89914
  281  B   0.62591   0.95624   0.70672   0.89914
  282  B   0.62591   0.89914   0.95624   0.70672
  283  B   0.62591   0.89914   0.95624   0.70672
  284  B   0.62591   0.89914   0.95624   0.70672
  285  B   0.62591   0.95624   0.70672   0.89914
  286  B   0.62591   0.70672   0.89914   0.95624
  287  B   0.62591   0.95624   0.70672   0.89914
  288  B   0.62591   0.70672   0.89914   0.95624
  289  H   0.86802
  290  H   0.86802
  291  H   0.83558
  292  H   0.86802
  293  H   0.86802
  294  H   0.83558
  295  H   0.86802
  296  H   0.86802
  297  H   0.83558
  298  H   0.86802
  299  H   0.83558
  300  H   0.83558
  301  H   0.83558
  302  H   0.83558
  303  H   0.83558
  304  H   0.86802
  305  H   0.86802
  306  H   0.86802
  307  H   0.86802
  308  H   0.83558
  309  H   0.83558
  310  H   0.83558
  311  H   0.83558
  312  H   0.86802
  313  H   0.85674
  314  H   0.85674
  315  H   0.83148
  316  H   0.85674
  317  H   0.85674
  318  H   0.83148
  319  H   0.85674
  320  H   0.85674
  321  H   0.83148
  322  H   0.85674
  323  H   0.83148
  324  H   0.83148
  325  H   0.83148
  326  H   0.83148
  327  H   0.83148
  328  H   0.85674
  329  H   0.85674
  330  H   0.85674
  331  H   0.85674
  332  H   0.83148
  333  H   0.83148
  334  H   0.83148
  335  H   0.83148
  336  H   0.85674
  337  H   0.82144
  338  H   0.82144
  339  H   0.82839
  340  H   0.82144
  341  H   0.82144
  342  H   0.82839
  343  H   0.82144
  344  H   0.82144
  345  H   0.82839
  346  H   0.82144
  347  H   0.82839
  348  H   0.82839
  349  H   0.82839
  350  H   0.82839
  351  H   0.82839
  352  H   0.82144
  353  H   0.82144
  354  H   0.82144
  355  H   0.82144
  356  H   0.82839
  357  H   0.82839
  358  H   0.82839
  359  H   0.82839
  360  H   0.82144

 **********************
 *                    *
 * JOB ENDED NORMALLY *
 *                    *
 **********************



 TOTAL JOB TIME:            51.45 SECONDS

 == MOPAC DONE ==
