 *******************************************************************************
 **                                                                           **
 **                              MOPAC v22.1.0                                **
 **                                                                           **
 *******************************************************************************
 **          Digital Object Identifier (DOI): 10.5281/zenodo.6511958          **
 **    Visit the DOI location for information on how to cite this program.    **
 *******************************************************************************

                              PM7 CALCULATION RESULTS

 *******************************************************************************
 *  CALCULATION DONE:                                Fri Dec 22 13:18:30 2023  *
 *  PM7        - The PM7 Hamiltonian to be used
 *  NOOPT      - DO NOT OPTIMIZE ANY COORDINATES
 *
 *
 *
 *                 CHARGE ON SYSTEM = 0
 *
 *
 *
 *  T=         - A TIME OF 172800.0 SECONDS REQUESTED
 *  DUMP=N     - RESTART FILE WRITTEN EVERY 7200.0 SECONDS REQUESTED
 *******************************************************************************
PM7 CHARGE=0 NOOPT


   ATOM   CHEMICAL          X               Y               Z
  NUMBER   SYMBOL      (ANGSTROMS)     (ANGSTROMS)     (ANGSTROMS)

     1       N          8.60021100      9.45951000     22.89779100   
     2       N         10.86279100      3.43478900     14.61049000   
     3       C         17.76606700     14.46125600     21.22974000   
     4       C          2.84026000      5.73106700     21.64374400   
     5       C          3.17724000     15.62624400     11.74856700   
     6       C         21.22974000     17.76606700     14.46125600   
     7       C         21.64374400      2.84026000      5.73106700   
     8       C          3.59124400      0.28643300     20.89276000   
     9       C         14.46125600     21.22974000     17.76606700   
    10       C          5.73106700     21.64374400      2.84026000   
    11       C         15.62624400     11.74856700      3.17724000   
    12       C          6.30393300      2.42625600     14.87526000   
    13       C         20.47875600     12.32143300     15.21224000   
    14       C         20.89276000      3.59124400      0.28643300   
    15       C         12.32143300     15.21224000     20.47875600   
    16       C         15.21224000     20.47875600     12.32143300   
    17       C          8.44375600     23.78356700      8.85776000   
    18       C         18.33893300      9.60874400      9.19474000   
    19       C          9.60874400      9.19474000     18.33893300   
    20       C         14.87526000      6.30393300      2.42625600   
    21       C          2.42625600     14.87526000      6.30393300   
    22       C         23.78356700      8.85776000      8.44375600   
    23       C          8.85776000      8.44375600     23.78356700   
    24       C         11.74856700      3.17724000     15.62624400   
    25       C          0.28643300     20.89276000      3.59124400   
    26       C          9.19474000     18.33893300      9.60874400   
    27       C         18.94068300     14.63696700     20.42098800   
    28       C          3.64901200      6.90568300     21.46803300   
    29       C          2.36848800     15.45053300     12.92318300   
    30       C         20.42098800     18.94068300     14.63696700   
    31       C         21.46803300      3.64901200      6.90568300   
    32       C          3.41553300     23.18181700     21.70151200   
    33       C         14.63696700     20.42098800     18.94068300   
    34       C          6.90568300     21.46803300      3.64901200   
    35       C         15.45053300     12.92318300      2.36848800   
    36       C          5.12931700      2.60196700     15.68401200   
    37       C         20.65446700     11.14681700     14.40348800   
    38       C         21.70151200      3.41553300     23.18181700   
    39       C         11.14681700     14.40348800     20.65446700   
    40       C         14.40348800     20.65446700     11.14681700   
    41       C          8.61946700      0.88818300      9.66651200   
    42       C         17.16431700      9.43303300      8.38598800   
    43       C          9.43303300      8.38598800     17.16431700   
    44       C         15.68401200      5.12931700      2.60196700   
    45       C          2.60196700     15.68401200      5.12931700   
    46       C          0.88818300      9.66651200      8.61946700   
    47       C          9.66651200      8.61946700      0.88818300   
    48       C         12.92318300      2.36848800     15.45053300   
    49       C         23.18181700     21.70151200      3.41553300   
    50       C          8.38598800     17.16431700      9.43303300   
    51       C         15.55884800     15.38313700     22.14199300   
    52       C          1.92800700      3.52384800     20.72186300   
    53       C          4.08949300     14.70436300      9.54134800   
    54       C         22.14199300     15.55884800     15.38313700   
    55       C         20.72186300      1.92800700      3.52384800   
    56       C          2.66936300      2.49365200     19.98050700   
    57       C         15.38313700     22.14199300     15.55884800   
    58       C          3.52384800     20.72186300      1.92800700   
    59       C         14.70436300      9.54134800      4.08949300   
    60       C          8.51115200      3.34813700     13.96300700   
    61       C         21.40063700     14.52865200     16.12449300   
    62       C         19.98050700      2.66936300      2.49365200   
    63       C         14.52865200     16.12449300     21.40063700   
    64       C         16.12449300     21.40063700     14.52865200   
    65       C          9.36563700     21.57634800      7.94550700   
    66       C         20.54615200      8.68686300     10.10699300   
    67       C          8.68686300     10.10699300     20.54615200   
    68       C         13.96300700      8.51115200      3.34813700   
    69       C          3.34813700     13.96300700      8.51115200   
    70       C         21.57634800      7.94550700      9.36563700   
    71       C          7.94550700      9.36563700     21.57634800   
    72       C          9.54134800      4.08949300     14.70436300   
    73       C          2.49365200     19.98050700      2.66936300   
    74       C         10.10699300     20.54615200      8.68686300   
    75       C         19.21748800     19.98050700     17.98510400   
    76       C          6.08489600      7.18248800     16.12449300   
    77       C         24.00260400     10.10699300     13.19998800   
    78       C         17.98510400     19.21748800     19.98050700   
    79       C         16.12449300      6.08489600      7.18248800   
    80       C         22.14199300     22.90501200      0.06739600   
    81       C         19.98050700     17.98510400     19.21748800   
    82       C          7.18248800     16.12449300      6.08489600   
    83       C         10.10699300     13.19998800     24.00260400   
    84       C          4.85251200      7.94550700     18.11989600   
    85       C          1.92800700     10.87001200     11.96760400   
    86       C          0.06739600     22.14199300     22.90501200   
    87       C         10.87001200     11.96760400      1.92800700   
    88       C         11.96760400      1.92800700     10.87001200   
    89       C         13.96300700      1.16498800     12.10239600   
    90       C         16.88751200      4.08949300      5.95010400   
    91       C          4.08949300      5.95010400     16.88751200   
    92       C         18.11989600      4.85251200      7.94550700   
    93       C          7.94550700     18.11989600      4.85251200   
    94       C          1.16498800     12.10239600     13.96300700   
    95       C         12.10239600     13.96300700      1.16498800   
    96       C         13.19998800     24.00260400     10.10699300   
    97       C         22.90501200      0.06739600     22.14199300   
    98       C          5.95010400     16.88751200      4.08949300   
    99       C         18.45687600     16.94528000     20.56300100   
   100       C          3.50699900      6.42187600     19.15972000   
   101       C          2.51050100     13.14222000     12.43937600   
   102       C         20.56300100     18.45687600     16.94528000   
   103       C         19.15972000      3.50699900      6.42187600   
   104       C          1.10722000     23.66562400     21.55949900   
   105       C         16.94528000     20.56300100     18.45687600   
   106       C          6.42187600     19.15972000      3.50699900   
   107       C         13.14222000     12.43937600      2.51050100   
   108       C          5.61312400      4.91028000     15.54199900   
   109       C         22.96278000     11.63062400     14.54550100   
   110       C         21.55949900      1.10722000     23.66562400   
   111       C         11.63062400     14.54550100     22.96278000   
   112       C         14.54550100     22.96278000     11.63062400   
   113       C         10.92778000      0.40437600      9.52449900   
   114       C         17.64812400      7.12472000      8.52800100   
   115       C          7.12472000      8.52800100     17.64812400   
   116       C         15.54199900      5.61312400      4.91028000   
   117       C          4.91028000     15.54199900      5.61312400   
   118       C          0.40437600      9.52449900     10.92778000   
   119       C          9.52449900     10.92778000      0.40437600   
   120       C         12.43937600      2.51050100     13.14222000   
   121       C         23.66562400     21.55949900      1.10722000   
   122       C          8.52800100     17.64812400      7.12472000   
   123       C         16.54812500     19.02011400     20.18991600   
   124       C          3.88008400      4.51312500     17.08488600   
   125       C          2.13741600     11.06738600     10.53062500   
   126       C         20.18991600     16.54812500     19.02011400   
   127       C         17.08488600      3.88008400      4.51312500   
   128       C         23.10238600      1.50437500     21.93258400   
   129       C         19.02011400     20.18991600     16.54812500   
   130       C          4.51312500     17.08488600      3.88008400   
   131       C         11.06738600     10.53062500      2.13741600   
   132       C          7.52187500      6.98511400     15.91508400   
   133       C          0.96761400     13.53937500     14.17241600   
   134       C         21.93258400     23.10238600      1.50437500   
   135       C         13.53937500     14.17241600      0.96761400   
   136       C         14.17241600      0.96761400     13.53937500   
   137       C         13.00261400     22.56562500      9.89758400   
   138       C         19.55687500      5.04988600      8.15491600   
   139       C          5.04988600      8.15491600     19.55687500   
   140       C         15.91508400      7.52187500      6.98511400   
   141       C          6.98511400     15.91508400      7.52187500   
   142       C         22.56562500      9.89758400     13.00261400   
   143       C          9.89758400     13.00261400     22.56562500   
   144       C         10.53062500      2.13741600     11.06738600   
   145       C          1.50437500     21.93258400     23.10238600   
   146       C          8.15491600     19.55687500      5.04988600   
   147       C         23.22514300     21.99035200     23.90873100   
   148       C          0.16126900     11.19014300     14.11464800   
   149       C          5.85623100      8.09714800     17.20764300   
   150       C         23.90873100     23.22514300     21.99035200   
   151       C         14.11464800      0.16126900     11.19014300   
   152       C         20.13214800     18.89735700     18.21376900   
   153       C         21.99035200     23.90873100     23.22514300   
   154       C         11.19014300     14.11464800      0.16126900   
   155       C          8.09714800     17.20764300      5.85623100   
   156       C          0.84485700      9.95535200     12.19626900   
   157       C          3.93785200      6.86235700     17.89123100   
   158       C         18.21376900     20.13214800     18.89735700   
   159       C          6.86235700     17.89123100      3.93785200   
   160       C         17.89123100      3.93785200      6.86235700   
   161       C         15.97285200      5.17264300      6.17876900   
   162       C         12.87985700      2.07964800     11.87373100   
   163       C          2.07964800     11.87373100     12.87985700   
   164       C         12.19626900      0.84485700      9.95535200   
   165       C          9.95535200     12.19626900      0.84485700   
   166       C          5.17264300      6.17876900     15.97285200   
   167       C          6.17876900     15.97285200      5.17264300   
   168       C         17.20764300      5.85623100      8.09714800   
   169       C         18.89735700     18.21376900     20.13214800   
   170       C         11.87373100     12.87985700      2.07964800   
   171       C         17.16672400     16.79123200     21.00829600   
   172       C          3.06170400      5.13172400     19.31376800   
   173       C          2.95579600     13.29626800     11.14922400   
   174       C         21.00829600     17.16672400     16.79123200   
   175       C         19.31376800      3.06170400      5.13172400   
   176       C          1.26126800      0.88577600     21.11420400   
   177       C         16.79123200     21.00829600     17.16672400   
   178       C          5.13172400     19.31376800      3.06170400   
   179       C         13.29626800     11.14922400      2.95579600   
   180       C          6.90327600      4.75623200     15.09670400   
   181       C         22.80873200     12.92077600     14.99079600   
   182       C         21.11420400      1.26126800      0.88577600   
   183       C         12.92077600     14.99079600     22.80873200   
   184       C         14.99079600     22.80873200     12.92077600   
   185       C         10.77373200     23.18422400      9.07920400   
   186       C         18.93827600      7.27876800      8.97329600   
   187       C          7.27876800      8.97329600     18.93827600   
   188       C         15.09670400      6.90327600      4.75623200   
   189       C          4.75623200     15.09670400      6.90327600   
   190       C         23.18422400      9.07920400     10.77373200   
   191       C          9.07920400     10.77373200     23.18422400   
   192       C         11.14922400      2.95579600     13.29626800   
   193       C          0.88577600     21.11420400      1.26126800   
   194       C          8.97329600     18.93827600      7.27876800   
   195       C         16.16300500     17.81420700     20.72908400   
   196       C          3.34091600      4.12800500     18.29079300   
   197       C          2.67658400     12.27329300     10.14550500   
   198       C         20.72908400     16.16300500     17.81420700   
   199       C         18.29079300      3.34091600      4.12800500   
   200       C          0.23829300      1.88949500     21.39341600   
   201       C         17.81420700     20.72908400     16.16300500   
   202       C          4.12800500     18.29079300      3.34091600   
   203       C         12.27329300     10.14550500      2.67658400   
   204       C          7.90699500      5.77920700     15.37591600   
   205       C         23.83170700     13.92449500     14.71158400   
   206       C         21.39341600      0.23829300      1.88949500   
   207       C         13.92449500     14.71158400     23.83170700   
   208       C         14.71158400     23.83170700     13.92449500   
   209       C         11.79670700     22.18050500      9.35841600   
   210       C         19.94199500      6.25579300      8.69408400   
   211       C          6.25579300      8.69408400     19.94199500   
   212       C         15.37591600      7.90699500      5.77920700   
   213       C          5.77920700     15.37591600      7.90699500   
   214       C         22.18050500      9.35841600     11.79670700   
   215       C          9.35841600     11.79670700     22.18050500   
   216       C         10.14550500      2.67658400     12.27329300   
   217       C          1.88949500     21.39341600      0.23829300   
   218       C          8.69408400     19.94199500      6.25579300   
   219       C         19.29932600     15.89101400     20.03346100   
   220       C          4.03653900      7.26432600     20.21398600   
   221       C          1.98096100     14.19648600     13.28182600   
   222       C         20.03346100     19.29932600     15.89101400   
   223       C         20.21398600      4.03653900      7.26432600   
   224       C          2.16148600     22.82317400     22.08903900   
   225       C         15.89101400     20.03346100     19.29932600   
   226       C          7.26432600     20.21398600      4.03653900   
   227       C         14.19648600     13.28182600      1.98096100   
   228       C          4.77067400      3.85601400     16.07153900   
   229       C         21.90851400     10.78817400     14.01596100   
   230       C         22.08903900      2.16148600     22.82317400   
   231       C         10.78817400     14.01596100     21.90851400   
   232       C         14.01596100     21.90851400     10.78817400   
   233       C          9.87351400      1.24682600     10.05403900   
   234       C         16.80567400      8.17898600      7.99846100   
   235       C          8.17898600      7.99846100     16.80567400   
   236       C         16.07153900      4.77067400      3.85601400   
   237       C          3.85601400     16.07153900      4.77067400   
   238       C          1.24682600     10.05403900      9.87351400   
   239       C         10.05403900      9.87351400      1.24682600   
   240       C         13.28182600      1.98096100     14.19648600   
   241       C         22.82317400     22.08903900      2.16148600   
   242       C          7.99846100     16.80567400      8.17898600   
   243       C         14.79342200     17.30392300     20.81332900   
   244       C          3.25667100      2.75842200     18.80107700   
   245       C          2.76082900     12.78357700      8.77592200   
   246       C         20.81332900     14.79342200     17.30392300   
   247       C         18.80107700      3.25667100      2.75842200   
   248       C          0.74857700      3.25907800     21.30917100   
   249       C         17.30392300     20.81332900     14.79342200   
   250       C          2.75842200     18.80107700      3.25667100   
   251       C         12.78357700      8.77592200      2.76082900   
   252       C          9.27657800      5.26892300     15.29167100   
   253       C         23.32142300     15.29407800     14.79582900   
   254       C         21.30917100      0.74857700      3.25907800   
   255       C         15.29407800     14.79582900     23.32142300   
   256       C         14.79582900     23.32142300     15.29407800   
   257       C         11.28642300     20.81092200      9.27417100   
   258       C         21.31157800      6.76607700      8.77832900   
   259       C          6.76607700      8.77832900     21.31157800   
   260       C         15.29167100      9.27657800      5.26892300   
   261       C          5.26892300     15.29167100      9.27657800   
   262       C         20.81092200      9.27417100     11.28642300   
   263       C          9.27417100     11.28642300     20.81092200   
   264       C          8.77592200      2.76082900     12.78357700   
   265       C          3.25907800     21.30917100      0.74857700   
   266       C          8.77832900     21.31157800      6.76607700   
   267       C         16.88029100     15.47701000     21.48728900   
   268       C          2.58271100      4.84529100     20.62799000   
   269       C          3.43478900     14.61049000     10.86279100   
   270       C         21.48728900     16.88029100     15.47701000   
   271       C         20.62799000      2.58271100      4.84529100   
   272       C          2.57549000      1.17220900     20.63521100   
   273       C         15.47701000     21.48728900     16.88029100   
   274       C          4.84529100     20.62799000      2.58271100   
   275       C         14.61049000     10.86279100      3.43478900   
   276       C          7.18970900      3.44201000     14.61771100   
   277       C         21.49451000     13.20720900     15.46978900   
   278       C         20.63521100      2.57549000      1.17220900   
   279       C         13.20720900     15.46978900     21.49451000   
   280       C         15.46978900     21.49451000     13.20720900   
   281       C          9.45951000     22.89779100      8.60021100   
   282       C         19.22470900      8.59299000      9.45228900   
   283       C          8.59299000      9.45228900     19.22470900   
   284       C         14.61771100      7.18970900      3.44201000   
   285       C          3.44201000     14.61771100      7.18970900   
   286       C         22.89779100      8.60021100      9.45951000   
   287       B          1.17220900     20.63521100      2.57549000   
   288       B          9.45228900     19.22470900      8.59299000   
   289       H         13.45031600     21.59801100     17.55184400   
   290       H          6.51815600      1.41531600     14.50698900   
   291       H         23.56934400      8.48948900      7.43281600   
   292       H         17.55184400     13.45031600     21.59801100   
   293       H         14.50698900      6.51815600      1.41531600   
   294       H         20.52448900      4.60218400      0.50065600   
   295       H         21.59801100     17.55184400     13.45031600   
   296       H          1.41531600     14.50698900      6.51815600   
   297       H          8.48948900      7.43281600     23.56934400   
   298       H         10.61968400      9.56301100     18.55315600   
   299       H          3.54551100     16.63718400     11.53434400   
   300       H          0.50065600     20.52448900      4.60218400   
   301       H         16.63718400     11.53434400      3.54551100   
   302       H         11.53434400      3.54551100     16.63718400   
   303       H         15.58051100     19.46781600     12.53565600   
   304       H         22.65468400      2.47198900      5.51684400   
   305       H          2.47198900      5.51684400     22.65468400   
   306       H         18.55315600     10.61968400      9.56301100   
   307       H          9.56301100     18.55315600     10.61968400   
   308       H         19.46781600     12.53565600     15.58051100   
   309       H         12.53565600     15.58051100     19.46781600   
   310       H          7.43281600     23.56934400      8.48948900   
   311       H          4.60218400      0.50065600     20.52448900   
   312       H          5.51684400     22.65468400      2.47198900   
   313       H         13.74878400     20.12733400     19.49910700   
   314       H          4.57089300      1.71378400     15.97766600   
   315       H          1.44660700      9.96016600      7.73128400   
   316       H         19.49910700     13.74878400     20.12733400   
   317       H         15.97766600      4.57089300      1.71378400   
   318       H         21.99516600      4.30371600     22.62339300   
   319       H         20.12733400     19.49910700     13.74878400   
   320       H          1.71378400     15.97766600      4.57089300   
   321       H          9.96016600      7.73128400      1.44660700   
   322       H         10.32121600      8.09233400     16.60589300   
   323       H          2.07483400     16.33871600     13.48160700   
   324       H         22.62339300     21.99516600      4.30371600   
   325       H         16.33871600     13.48160700      2.07483400   
   326       H         13.48160700      2.07483400     16.33871600   
   327       H         14.10983400     19.76628400     10.58839300   
   328       H         22.35621600      3.94266600      7.46410700   
   329       H          3.94266600      7.46410700     22.35621600   
   330       H         16.60589300     10.32121600      8.09233400   
   331       H          8.09233400     16.60589300     10.32121600   
   332       H         19.76628400     10.58839300     14.10983400   
   333       H         10.58839300     14.10983400     19.76628400   
   334       H          7.73128400      1.44660700      9.96016600   
   335       H          4.30371600     22.62339300     21.99516600   
   336       H          7.46410700     22.35621600      3.94266600   
   337       H         14.00392600     17.89845200     20.33674300   
   338       H          3.73325700      1.96892600     18.20654800   
   339       H          2.28424300     12.18904800      7.98642600   
   340       H         20.33674300     14.00392600     17.89845200   
   341       H         18.20654800      3.73325700      1.96892600   
   342       H          0.15404800      4.04857400     21.78575700   
   343       H         17.89845200     20.33674300     14.00392600   
   344       H          1.96892600     18.20654800      3.73325700   
   345       H         12.18904800      7.98642600      2.28424300   
   346       H         10.06607400      5.86345200     15.76825700   
   347       H         23.91595200     16.08357400     14.31924300   
   348       H         21.78575700      0.15404800      4.04857400   
   349       H         16.08357400     14.31924300     23.91595200   
   350       H         14.31924300     23.91595200     16.08357400   
   351       H         11.88095200     20.02142600      9.75075700   
   352       H         22.10107400      6.17154800      8.30174300   
   353       H          6.17154800      8.30174300     22.10107400   
   354       H         15.76825700     10.06607400      5.86345200   
   355       H          5.86345200     15.76825700     10.06607400   
   356       H         20.02142600      9.75075700     11.88095200   
   357       H          9.75075700     11.88095200     20.02142600   
   358       H          7.98642600      2.28424300     12.18904800   
   359       H          4.04857400     21.78575700      0.15404800   
   360       H          8.30174300     22.10107400      6.17154800   
   361      Tv         24.07000000      0.00000000      0.00000000   
   362      Tv          0.00000000     24.07000000      0.00000000   
   363      Tv          0.00000000      0.00000000     24.07000000   


                   THE SYSTEM IS A SOLID


                UNIT CELL TRANSLATION VECTORS

              X                Y              Z
    T1 =    24.0700000      0.0000000      0.0000000
    T2 =     0.0000000     24.0700000      0.0000000
    T3 =     0.0000000      0.0000000     24.0700000


          CARTESIAN COORDINATES 

    NO.       ATOM           X           Y           Z

     1         N          8.6002      9.4595     22.8978
     2         N         10.8628      3.4348     14.6105
     3         C         17.7661     14.4613     21.2297
     4         C          2.8403      5.7311     21.6437
     5         C          3.1772     15.6262     11.7486
     6         C         21.2297     17.7661     14.4613
     7         C         21.6437      2.8403      5.7311
     8         C          3.5912      0.2864     20.8928
     9         C         14.4613     21.2297     17.7661
    10         C          5.7311     21.6437      2.8403
    11         C         15.6262     11.7486      3.1772
    12         C          6.3039      2.4263     14.8753
    13         C         20.4788     12.3214     15.2122
    14         C         20.8928      3.5912      0.2864
    15         C         12.3214     15.2122     20.4788
    16         C         15.2122     20.4788     12.3214
    17         C          8.4438     23.7836      8.8578
    18         C         18.3389      9.6087      9.1947
    19         C          9.6087      9.1947     18.3389
    20         C         14.8753      6.3039      2.4263
    21         C          2.4263     14.8753      6.3039
    22         C         23.7836      8.8578      8.4438
    23         C          8.8578      8.4438     23.7836
    24         C         11.7486      3.1772     15.6262
    25         C          0.2864     20.8928      3.5912
    26         C          9.1947     18.3389      9.6087
    27         C         18.9407     14.6370     20.4210
    28         C          3.6490      6.9057     21.4680
    29         C          2.3685     15.4505     12.9232
    30         C         20.4210     18.9407     14.6370
    31         C         21.4680      3.6490      6.9057
    32         C          3.4155     23.1818     21.7015
    33         C         14.6370     20.4210     18.9407
    34         C          6.9057     21.4680      3.6490
    35         C         15.4505     12.9232      2.3685
    36         C          5.1293      2.6020     15.6840
    37         C         20.6545     11.1468     14.4035
    38         C         21.7015      3.4155     23.1818
    39         C         11.1468     14.4035     20.6545
    40         C         14.4035     20.6545     11.1468
    41         C          8.6195      0.8882      9.6665
    42         C         17.1643      9.4330      8.3860
    43         C          9.4330      8.3860     17.1643
    44         C         15.6840      5.1293      2.6020
    45         C          2.6020     15.6840      5.1293
    46         C          0.8882      9.6665      8.6195
    47         C          9.6665      8.6195      0.8882
    48         C         12.9232      2.3685     15.4505
    49         C         23.1818     21.7015      3.4155
    50         C          8.3860     17.1643      9.4330
    51         C         15.5588     15.3831     22.1420
    52         C          1.9280      3.5238     20.7219
    53         C          4.0895     14.7044      9.5413
    54         C         22.1420     15.5588     15.3831
    55         C         20.7219      1.9280      3.5238
    56         C          2.6694      2.4937     19.9805
    57         C         15.3831     22.1420     15.5588
    58         C          3.5238     20.7219      1.9280
    59         C         14.7044      9.5413      4.0895
    60         C          8.5112      3.3481     13.9630
    61         C         21.4006     14.5287     16.1245
    62         C         19.9805      2.6694      2.4937
    63         C         14.5287     16.1245     21.4006
    64         C         16.1245     21.4006     14.5287
    65         C          9.3656     21.5763      7.9455
    66         C         20.5462      8.6869     10.1070
    67         C          8.6869     10.1070     20.5462
    68         C         13.9630      8.5112      3.3481
    69         C          3.3481     13.9630      8.5112
    70         C         21.5763      7.9455      9.3656
    71         C          7.9455      9.3656     21.5763
    72         C          9.5413      4.0895     14.7044
    73         C          2.4937     19.9805      2.6694
    74         C         10.1070     20.5462      8.6869
    75         C         19.2175     19.9805     17.9851
    76         C          6.0849      7.1825     16.1245
    77         C         24.0026     10.1070     13.2000
    78         C         17.9851     19.2175     19.9805
    79         C         16.1245      6.0849      7.1825
    80         C         22.1420     22.9050      0.0674
    81         C         19.9805     17.9851     19.2175
    82         C          7.1825     16.1245      6.0849
    83         C         10.1070     13.2000     24.0026
    84         C          4.8525      7.9455     18.1199
    85         C          1.9280     10.8700     11.9676
    86         C          0.0674     22.1420     22.9050
    87         C         10.8700     11.9676      1.9280
    88         C         11.9676      1.9280     10.8700
    89         C         13.9630      1.1650     12.1024
    90         C         16.8875      4.0895      5.9501
    91         C          4.0895      5.9501     16.8875
    92         C         18.1199      4.8525      7.9455
    93         C          7.9455     18.1199      4.8525
    94         C          1.1650     12.1024     13.9630
    95         C         12.1024     13.9630      1.1650
    96         C         13.2000     24.0026     10.1070
    97         C         22.9050      0.0674     22.1420
    98         C          5.9501     16.8875      4.0895
    99         C         18.4569     16.9453     20.5630
   100         C          3.5070      6.4219     19.1597
   101         C          2.5105     13.1422     12.4394
   102         C         20.5630     18.4569     16.9453
   103         C         19.1597      3.5070      6.4219
   104         C          1.1072     23.6656     21.5595
   105         C         16.9453     20.5630     18.4569
   106         C          6.4219     19.1597      3.5070
   107         C         13.1422     12.4394      2.5105
   108         C          5.6131      4.9103     15.5420
   109         C         22.9628     11.6306     14.5455
   110         C         21.5595      1.1072     23.6656
   111         C         11.6306     14.5455     22.9628
   112         C         14.5455     22.9628     11.6306
   113         C         10.9278      0.4044      9.5245
   114         C         17.6481      7.1247      8.5280
   115         C          7.1247      8.5280     17.6481
   116         C         15.5420      5.6131      4.9103
   117         C          4.9103     15.5420      5.6131
   118         C          0.4044      9.5245     10.9278
   119         C          9.5245     10.9278      0.4044
   120         C         12.4394      2.5105     13.1422
   121         C         23.6656     21.5595      1.1072
   122         C          8.5280     17.6481      7.1247
   123         C         16.5481     19.0201     20.1899
   124         C          3.8801      4.5131     17.0849
   125         C          2.1374     11.0674     10.5306
   126         C         20.1899     16.5481     19.0201
   127         C         17.0849      3.8801      4.5131
   128         C         23.1024      1.5044     21.9326
   129         C         19.0201     20.1899     16.5481
   130         C          4.5131     17.0849      3.8801
   131         C         11.0674     10.5306      2.1374
   132         C          7.5219      6.9851     15.9151
   133         C          0.9676     13.5394     14.1724
   134         C         21.9326     23.1024      1.5044
   135         C         13.5394     14.1724      0.9676
   136         C         14.1724      0.9676     13.5394
   137         C         13.0026     22.5656      9.8976
   138         C         19.5569      5.0499      8.1549
   139         C          5.0499      8.1549     19.5569
   140         C         15.9151      7.5219      6.9851
   141         C          6.9851     15.9151      7.5219
   142         C         22.5656      9.8976     13.0026
   143         C          9.8976     13.0026     22.5656
   144         C         10.5306      2.1374     11.0674
   145         C          1.5044     21.9326     23.1024
   146         C          8.1549     19.5569      5.0499
   147         C         23.2251     21.9904     23.9087
   148         C          0.1613     11.1901     14.1146
   149         C          5.8562      8.0971     17.2076
   150         C         23.9087     23.2251     21.9904
   151         C         14.1146      0.1613     11.1901
   152         C         20.1321     18.8974     18.2138
   153         C         21.9904     23.9087     23.2251
   154         C         11.1901     14.1146      0.1613
   155         C          8.0971     17.2076      5.8562
   156         C          0.8449      9.9554     12.1963
   157         C          3.9379      6.8624     17.8912
   158         C         18.2138     20.1321     18.8974
   159         C          6.8624     17.8912      3.9379
   160         C         17.8912      3.9379      6.8624
   161         C         15.9729      5.1726      6.1788
   162         C         12.8799      2.0796     11.8737
   163         C          2.0796     11.8737     12.8799
   164         C         12.1963      0.8449      9.9554
   165         C          9.9554     12.1963      0.8449
   166         C          5.1726      6.1788     15.9729
   167         C          6.1788     15.9729      5.1726
   168         C         17.2076      5.8562      8.0971
   169         C         18.8974     18.2138     20.1321
   170         C         11.8737     12.8799      2.0796
   171         C         17.1667     16.7912     21.0083
   172         C          3.0617      5.1317     19.3138
   173         C          2.9558     13.2963     11.1492
   174         C         21.0083     17.1667     16.7912
   175         C         19.3138      3.0617      5.1317
   176         C          1.2613      0.8858     21.1142
   177         C         16.7912     21.0083     17.1667
   178         C          5.1317     19.3138      3.0617
   179         C         13.2963     11.1492      2.9558
   180         C          6.9033      4.7562     15.0967
   181         C         22.8087     12.9208     14.9908
   182         C         21.1142      1.2613      0.8858
   183         C         12.9208     14.9908     22.8087
   184         C         14.9908     22.8087     12.9208
   185         C         10.7737     23.1842      9.0792
   186         C         18.9383      7.2788      8.9733
   187         C          7.2788      8.9733     18.9383
   188         C         15.0967      6.9033      4.7562
   189         C          4.7562     15.0967      6.9033
   190         C         23.1842      9.0792     10.7737
   191         C          9.0792     10.7737     23.1842
   192         C         11.1492      2.9558     13.2963
   193         C          0.8858     21.1142      1.2613
   194         C          8.9733     18.9383      7.2788
   195         C         16.1630     17.8142     20.7291
   196         C          3.3409      4.1280     18.2908
   197         C          2.6766     12.2733     10.1455
   198         C         20.7291     16.1630     17.8142
   199         C         18.2908      3.3409      4.1280
   200         C          0.2383      1.8895     21.3934
   201         C         17.8142     20.7291     16.1630
   202         C          4.1280     18.2908      3.3409
   203         C         12.2733     10.1455      2.6766
   204         C          7.9070      5.7792     15.3759
   205         C         23.8317     13.9245     14.7116
   206         C         21.3934      0.2383      1.8895
   207         C         13.9245     14.7116     23.8317
   208         C         14.7116     23.8317     13.9245
   209         C         11.7967     22.1805      9.3584
   210         C         19.9420      6.2558      8.6941
   211         C          6.2558      8.6941     19.9420
   212         C         15.3759      7.9070      5.7792
   213         C          5.7792     15.3759      7.9070
   214         C         22.1805      9.3584     11.7967
   215         C          9.3584     11.7967     22.1805
   216         C         10.1455      2.6766     12.2733
   217         C          1.8895     21.3934      0.2383
   218         C          8.6941     19.9420      6.2558
   219         C         19.2993     15.8910     20.0335
   220         C          4.0365      7.2643     20.2140
   221         C          1.9810     14.1965     13.2818
   222         C         20.0335     19.2993     15.8910
   223         C         20.2140      4.0365      7.2643
   224         C          2.1615     22.8232     22.0890
   225         C         15.8910     20.0335     19.2993
   226         C          7.2643     20.2140      4.0365
   227         C         14.1965     13.2818      1.9810
   228         C          4.7707      3.8560     16.0715
   229         C         21.9085     10.7882     14.0160
   230         C         22.0890      2.1615     22.8232
   231         C         10.7882     14.0160     21.9085
   232         C         14.0160     21.9085     10.7882
   233         C          9.8735      1.2468     10.0540
   234         C         16.8057      8.1790      7.9985
   235         C          8.1790      7.9985     16.8057
   236         C         16.0715      4.7707      3.8560
   237         C          3.8560     16.0715      4.7707
   238         C          1.2468     10.0540      9.8735
   239         C         10.0540      9.8735      1.2468
   240         C         13.2818      1.9810     14.1965
   241         C         22.8232     22.0890      2.1615
   242         C          7.9985     16.8057      8.1790
   243         C         14.7934     17.3039     20.8133
   244         C          3.2567      2.7584     18.8011
   245         C          2.7608     12.7836      8.7759
   246         C         20.8133     14.7934     17.3039
   247         C         18.8011      3.2567      2.7584
   248         C          0.7486      3.2591     21.3092
   249         C         17.3039     20.8133     14.7934
   250         C          2.7584     18.8011      3.2567
   251         C         12.7836      8.7759      2.7608
   252         C          9.2766      5.2689     15.2917
   253         C         23.3214     15.2941     14.7958
   254         C         21.3092      0.7486      3.2591
   255         C         15.2941     14.7958     23.3214
   256         C         14.7958     23.3214     15.2941
   257         C         11.2864     20.8109      9.2742
   258         C         21.3116      6.7661      8.7783
   259         C          6.7661      8.7783     21.3116
   260         C         15.2917      9.2766      5.2689
   261         C          5.2689     15.2917      9.2766
   262         C         20.8109      9.2742     11.2864
   263         C          9.2742     11.2864     20.8109
   264         C          8.7759      2.7608     12.7836
   265         C          3.2591     21.3092      0.7486
   266         C          8.7783     21.3116      6.7661
   267         C         16.8803     15.4770     21.4873
   268         C          2.5827      4.8453     20.6280
   269         C          3.4348     14.6105     10.8628
   270         C         21.4873     16.8803     15.4770
   271         C         20.6280      2.5827      4.8453
   272         C          2.5755      1.1722     20.6352
   273         C         15.4770     21.4873     16.8803
   274         C          4.8453     20.6280      2.5827
   275         C         14.6105     10.8628      3.4348
   276         C          7.1897      3.4420     14.6177
   277         C         21.4945     13.2072     15.4698
   278         C         20.6352      2.5755      1.1722
   279         C         13.2072     15.4698     21.4945
   280         C         15.4698     21.4945     13.2072
   281         C          9.4595     22.8978      8.6002
   282         C         19.2247      8.5930      9.4523
   283         C          8.5930      9.4523     19.2247
   284         C         14.6177      7.1897      3.4420
   285         C          3.4420     14.6177      7.1897
   286         C         22.8978      8.6002      9.4595
   287         B          1.1722     20.6352      2.5755
   288         B          9.4523     19.2247      8.5930
   289         H         13.4503     21.5980     17.5518
   290         H          6.5182      1.4153     14.5070
   291         H         23.5693      8.4895      7.4328
   292         H         17.5518     13.4503     21.5980
   293         H         14.5070      6.5182      1.4153
   294         H         20.5245      4.6022      0.5007
   295         H         21.5980     17.5518     13.4503
   296         H          1.4153     14.5070      6.5182
   297         H          8.4895      7.4328     23.5693
   298         H         10.6197      9.5630     18.5532
   299         H          3.5455     16.6372     11.5343
   300         H          0.5007     20.5245      4.6022
   301         H         16.6372     11.5343      3.5455
   302         H         11.5343      3.5455     16.6372
   303         H         15.5805     19.4678     12.5357
   304         H         22.6547      2.4720      5.5168
   305         H          2.4720      5.5168     22.6547
   306         H         18.5532     10.6197      9.5630
   307         H          9.5630     18.5532     10.6197
   308         H         19.4678     12.5357     15.5805
   309         H         12.5357     15.5805     19.4678
   310         H          7.4328     23.5693      8.4895
   311         H          4.6022      0.5007     20.5245
   312         H          5.5168     22.6547      2.4720
   313         H         13.7488     20.1273     19.4991
   314         H          4.5709      1.7138     15.9777
   315         H          1.4466      9.9602      7.7313
   316         H         19.4991     13.7488     20.1273
   317         H         15.9777      4.5709      1.7138
   318         H         21.9952      4.3037     22.6234
   319         H         20.1273     19.4991     13.7488
   320         H          1.7138     15.9777      4.5709
   321         H          9.9602      7.7313      1.4466
   322         H         10.3212      8.0923     16.6059
   323         H          2.0748     16.3387     13.4816
   324         H         22.6234     21.9952      4.3037
   325         H         16.3387     13.4816      2.0748
   326         H         13.4816      2.0748     16.3387
   327         H         14.1098     19.7663     10.5884
   328         H         22.3562      3.9427      7.4641
   329         H          3.9427      7.4641     22.3562
   330         H         16.6059     10.3212      8.0923
   331         H          8.0923     16.6059     10.3212
   332         H         19.7663     10.5884     14.1098
   333         H         10.5884     14.1098     19.7663
   334         H          7.7313      1.4466      9.9602
   335         H          4.3037     22.6234     21.9952
   336         H          7.4641     22.3562      3.9427
   337         H         14.0039     17.8985     20.3367
   338         H          3.7333      1.9689     18.2065
   339         H          2.2842     12.1890      7.9864
   340         H         20.3367     14.0039     17.8985
   341         H         18.2065      3.7333      1.9689
   342         H          0.1540      4.0486     21.7858
   343         H         17.8985     20.3367     14.0039
   344         H          1.9689     18.2065      3.7333
   345         H         12.1890      7.9864      2.2842
   346         H         10.0661      5.8635     15.7683
   347         H         23.9160     16.0836     14.3192
   348         H         21.7858      0.1540      4.0486
   349         H         16.0836     14.3192     23.9160
   350         H         14.3192     23.9160     16.0836
   351         H         11.8810     20.0214      9.7508
   352         H         22.1011      6.1715      8.3017
   353         H          6.1715      8.3017     22.1011
   354         H         15.7683     10.0661      5.8635
   355         H          5.8635     15.7683     10.0661
   356         H         20.0214      9.7508     11.8810
   357         H          9.7508     11.8810     20.0214
   358         H          7.9864      2.2842     12.1890
   359         H          4.0486     21.7858      0.1540
   360         H          8.3017     22.1011      6.1715

 General Reference for PM7:
 "Optimization of Parameters for Semiempirical Methods VI: More Modifications to the 
 NDDO Approximations and Re-optimization of Parameters", J. J. P. Stewart, J. Mol. Mod., 1:32, 19 (2013)
 https://link.springer.com/article/10.1007/s00894-012-1667-x

           Empirical Formula: C284 H72 N2 B2  =   360 atoms



      RHF CALCULATION, NO. OF DOUBLY OCCUPIED LEVELS = 612


 -------------------------------------------------------------------------------
 PM7 CHARGE=0 NOOPT




     NO PARAMETERS MARKED FOR OPTIMIZATION, SO 1SCF WAS USED  
     SCF FIELD WAS ACHIEVED                                   


                              PM7 CALCULATION
                                                       MOPAC v22.1.0 Linux
                                                       Fri Dec 22 13:19:03 2023




          FINAL HEAT OF FORMATION =       2627.12985 KCAL/MOL =   10991.91128 KJ/MOL
          H.o.F. per unit cell    =       1313.56492 KCAL, for 2 unit cells, unit cell = C142 H36 N1 B1



          IONIZATION POTENTIAL    =          6.894788 EV
          HOMO LUMO ENERGIES (EV) =         -6.895 -3.852
          NO. OF FILLED LEVELS    =        612
          MOLECULAR WEIGHT        =       3533.3262

                   THE SYSTEM IS A SOLID


                UNIT CELL TRANSLATION VECTORS

              X                Y              Z
    T1 =    24.0700000      0.0000000      0.0000000
    T2 =     0.0000000     24.0700000      0.0000000
    T3 =     0.0000000      0.0000000     24.0700000

          VOLUME OF UNIT CELL     =      13945.313 CUBIC ANGSTROMS

          DENSITY                 =          0.421 GRAMS/CC
                              A   =         24.070 ANGSTROMS
                              B   =         24.070 ANGSTROMS
                              C   =         24.070 ANGSTROMS
                            ALPHA =         90.000 DEGREES
                            BETA  =         90.000 DEGREES
                            GAMMA =         90.000 DEGREES



          SCF CALCULATIONS        =          1

          WALL-CLOCK TIME         =     32.492 SECONDS
          COMPUTATION TIME        =         10 MINUTES AND 35.796 SECONDS




   ATOM   CHEMICAL          X               Y               Z
  NUMBER   SYMBOL      (ANGSTROMS)     (ANGSTROMS)     (ANGSTROMS)

     1       N          8.60021100      9.45951000     22.89779100   
     2       N         10.86279100      3.43478900     14.61049000   
     3       C         17.76606700     14.46125600     21.22974000   
     4       C          2.84026000      5.73106700     21.64374400   
     5       C          3.17724000     15.62624400     11.74856700   
     6       C         21.22974000     17.76606700     14.46125600   
     7       C         21.64374400      2.84026000      5.73106700   
     8       C          3.59124400      0.28643300     20.89276000   
     9       C         14.46125600     21.22974000     17.76606700   
    10       C          5.73106700     21.64374400      2.84026000   
    11       C         15.62624400     11.74856700      3.17724000   
    12       C          6.30393300      2.42625600     14.87526000   
    13       C         20.47875600     12.32143300     15.21224000   
    14       C         20.89276000      3.59124400      0.28643300   
    15       C         12.32143300     15.21224000     20.47875600   
    16       C         15.21224000     20.47875600     12.32143300   
    17       C          8.44375600     23.78356700      8.85776000   
    18       C         18.33893300      9.60874400      9.19474000   
    19       C          9.60874400      9.19474000     18.33893300   
    20       C         14.87526000      6.30393300      2.42625600   
    21       C          2.42625600     14.87526000      6.30393300   
    22       C         23.78356700      8.85776000      8.44375600   
    23       C          8.85776000      8.44375600     23.78356700   
    24       C         11.74856700      3.17724000     15.62624400   
    25       C          0.28643300     20.89276000      3.59124400   
    26       C          9.19474000     18.33893300      9.60874400   
    27       C         18.94068300     14.63696700     20.42098800   
    28       C          3.64901200      6.90568300     21.46803300   
    29       C          2.36848800     15.45053300     12.92318300   
    30       C         20.42098800     18.94068300     14.63696700   
    31       C         21.46803300      3.64901200      6.90568300   
    32       C          3.41553300     23.18181700     21.70151200   
    33       C         14.63696700     20.42098800     18.94068300   
    34       C          6.90568300     21.46803300      3.64901200   
    35       C         15.45053300     12.92318300      2.36848800   
    36       C          5.12931700      2.60196700     15.68401200   
    37       C         20.65446700     11.14681700     14.40348800   
    38       C         21.70151200      3.41553300     23.18181700   
    39       C         11.14681700     14.40348800     20.65446700   
    40       C         14.40348800     20.65446700     11.14681700   
    41       C          8.61946700      0.88818300      9.66651200   
    42       C         17.16431700      9.43303300      8.38598800   
    43       C          9.43303300      8.38598800     17.16431700   
    44       C         15.68401200      5.12931700      2.60196700   
    45       C          2.60196700     15.68401200      5.12931700   
    46       C          0.88818300      9.66651200      8.61946700   
    47       C          9.66651200      8.61946700      0.88818300   
    48       C         12.92318300      2.36848800     15.45053300   
    49       C         23.18181700     21.70151200      3.41553300   
    50       C          8.38598800     17.16431700      9.43303300   
    51       C         15.55884800     15.38313700     22.14199300   
    52       C          1.92800700      3.52384800     20.72186300   
    53       C          4.08949300     14.70436300      9.54134800   
    54       C         22.14199300     15.55884800     15.38313700   
    55       C         20.72186300      1.92800700      3.52384800   
    56       C          2.66936300      2.49365200     19.98050700   
    57       C         15.38313700     22.14199300     15.55884800   
    58       C          3.52384800     20.72186300      1.92800700   
    59       C         14.70436300      9.54134800      4.08949300   
    60       C          8.51115200      3.34813700     13.96300700   
    61       C         21.40063700     14.52865200     16.12449300   
    62       C         19.98050700      2.66936300      2.49365200   
    63       C         14.52865200     16.12449300     21.40063700   
    64       C         16.12449300     21.40063700     14.52865200   
    65       C          9.36563700     21.57634800      7.94550700   
    66       C         20.54615200      8.68686300     10.10699300   
    67       C          8.68686300     10.10699300     20.54615200   
    68       C         13.96300700      8.51115200      3.34813700   
    69       C          3.34813700     13.96300700      8.51115200   
    70       C         21.57634800      7.94550700      9.36563700   
    71       C          7.94550700      9.36563700     21.57634800   
    72       C          9.54134800      4.08949300     14.70436300   
    73       C          2.49365200     19.98050700      2.66936300   
    74       C         10.10699300     20.54615200      8.68686300   
    75       C         19.21748800     19.98050700     17.98510400   
    76       C          6.08489600      7.18248800     16.12449300   
    77       C         24.00260400     10.10699300     13.19998800   
    78       C         17.98510400     19.21748800     19.98050700   
    79       C         16.12449300      6.08489600      7.18248800   
    80       C         22.14199300     22.90501200      0.06739600   
    81       C         19.98050700     17.98510400     19.21748800   
    82       C          7.18248800     16.12449300      6.08489600   
    83       C         10.10699300     13.19998800     24.00260400   
    84       C          4.85251200      7.94550700     18.11989600   
    85       C          1.92800700     10.87001200     11.96760400   
    86       C          0.06739600     22.14199300     22.90501200   
    87       C         10.87001200     11.96760400      1.92800700   
    88       C         11.96760400      1.92800700     10.87001200   
    89       C         13.96300700      1.16498800     12.10239600   
    90       C         16.88751200      4.08949300      5.95010400   
    91       C          4.08949300      5.95010400     16.88751200   
    92       C         18.11989600      4.85251200      7.94550700   
    93       C          7.94550700     18.11989600      4.85251200   
    94       C          1.16498800     12.10239600     13.96300700   
    95       C         12.10239600     13.96300700      1.16498800   
    96       C         13.19998800     24.00260400     10.10699300   
    97       C         22.90501200      0.06739600     22.14199300   
    98       C          5.95010400     16.88751200      4.08949300   
    99       C         18.45687600     16.94528000     20.56300100   
   100       C          3.50699900      6.42187600     19.15972000   
   101       C          2.51050100     13.14222000     12.43937600   
   102       C         20.56300100     18.45687600     16.94528000   
   103       C         19.15972000      3.50699900      6.42187600   
   104       C          1.10722000     23.66562400     21.55949900   
   105       C         16.94528000     20.56300100     18.45687600   
   106       C          6.42187600     19.15972000      3.50699900   
   107       C         13.14222000     12.43937600      2.51050100   
   108       C          5.61312400      4.91028000     15.54199900   
   109       C         22.96278000     11.63062400     14.54550100   
   110       C         21.55949900      1.10722000     23.66562400   
   111       C         11.63062400     14.54550100     22.96278000   
   112       C         14.54550100     22.96278000     11.63062400   
   113       C         10.92778000      0.40437600      9.52449900   
   114       C         17.64812400      7.12472000      8.52800100   
   115       C          7.12472000      8.52800100     17.64812400   
   116       C         15.54199900      5.61312400      4.91028000   
   117       C          4.91028000     15.54199900      5.61312400   
   118       C          0.40437600      9.52449900     10.92778000   
   119       C          9.52449900     10.92778000      0.40437600   
   120       C         12.43937600      2.51050100     13.14222000   
   121       C         23.66562400     21.55949900      1.10722000   
   122       C          8.52800100     17.64812400      7.12472000   
   123       C         16.54812500     19.02011400     20.18991600   
   124       C          3.88008400      4.51312500     17.08488600   
   125       C          2.13741600     11.06738600     10.53062500   
   126       C         20.18991600     16.54812500     19.02011400   
   127       C         17.08488600      3.88008400      4.51312500   
   128       C         23.10238600      1.50437500     21.93258400   
   129       C         19.02011400     20.18991600     16.54812500   
   130       C          4.51312500     17.08488600      3.88008400   
   131       C         11.06738600     10.53062500      2.13741600   
   132       C          7.52187500      6.98511400     15.91508400   
   133       C          0.96761400     13.53937500     14.17241600   
   134       C         21.93258400     23.10238600      1.50437500   
   135       C         13.53937500     14.17241600      0.96761400   
   136       C         14.17241600      0.96761400     13.53937500   
   137       C         13.00261400     22.56562500      9.89758400   
   138       C         19.55687500      5.04988600      8.15491600   
   139       C          5.04988600      8.15491600     19.55687500   
   140       C         15.91508400      7.52187500      6.98511400   
   141       C          6.98511400     15.91508400      7.52187500   
   142       C         22.56562500      9.89758400     13.00261400   
   143       C          9.89758400     13.00261400     22.56562500   
   144       C         10.53062500      2.13741600     11.06738600   
   145       C          1.50437500     21.93258400     23.10238600   
   146       C          8.15491600     19.55687500      5.04988600   
   147       C         23.22514300     21.99035200     23.90873100   
   148       C          0.16126900     11.19014300     14.11464800   
   149       C          5.85623100      8.09714800     17.20764300   
   150       C         23.90873100     23.22514300     21.99035200   
   151       C         14.11464800      0.16126900     11.19014300   
   152       C         20.13214800     18.89735700     18.21376900   
   153       C         21.99035200     23.90873100     23.22514300   
   154       C         11.19014300     14.11464800      0.16126900   
   155       C          8.09714800     17.20764300      5.85623100   
   156       C          0.84485700      9.95535200     12.19626900   
   157       C          3.93785200      6.86235700     17.89123100   
   158       C         18.21376900     20.13214800     18.89735700   
   159       C          6.86235700     17.89123100      3.93785200   
   160       C         17.89123100      3.93785200      6.86235700   
   161       C         15.97285200      5.17264300      6.17876900   
   162       C         12.87985700      2.07964800     11.87373100   
   163       C          2.07964800     11.87373100     12.87985700   
   164       C         12.19626900      0.84485700      9.95535200   
   165       C          9.95535200     12.19626900      0.84485700   
   166       C          5.17264300      6.17876900     15.97285200   
   167       C          6.17876900     15.97285200      5.17264300   
   168       C         17.20764300      5.85623100      8.09714800   
   169       C         18.89735700     18.21376900     20.13214800   
   170       C         11.87373100     12.87985700      2.07964800   
   171       C         17.16672400     16.79123200     21.00829600   
   172       C          3.06170400      5.13172400     19.31376800   
   173       C          2.95579600     13.29626800     11.14922400   
   174       C         21.00829600     17.16672400     16.79123200   
   175       C         19.31376800      3.06170400      5.13172400   
   176       C          1.26126800      0.88577600     21.11420400   
   177       C         16.79123200     21.00829600     17.16672400   
   178       C          5.13172400     19.31376800      3.06170400   
   179       C         13.29626800     11.14922400      2.95579600   
   180       C          6.90327600      4.75623200     15.09670400   
   181       C         22.80873200     12.92077600     14.99079600   
   182       C         21.11420400      1.26126800      0.88577600   
   183       C         12.92077600     14.99079600     22.80873200   
   184       C         14.99079600     22.80873200     12.92077600   
   185       C         10.77373200     23.18422400      9.07920400   
   186       C         18.93827600      7.27876800      8.97329600   
   187       C          7.27876800      8.97329600     18.93827600   
   188       C         15.09670400      6.90327600      4.75623200   
   189       C          4.75623200     15.09670400      6.90327600   
   190       C         23.18422400      9.07920400     10.77373200   
   191       C          9.07920400     10.77373200     23.18422400   
   192       C         11.14922400      2.95579600     13.29626800   
   193       C          0.88577600     21.11420400      1.26126800   
   194       C          8.97329600     18.93827600      7.27876800   
   195       C         16.16300500     17.81420700     20.72908400   
   196       C          3.34091600      4.12800500     18.29079300   
   197       C          2.67658400     12.27329300     10.14550500   
   198       C         20.72908400     16.16300500     17.81420700   
   199       C         18.29079300      3.34091600      4.12800500   
   200       C          0.23829300      1.88949500     21.39341600   
   201       C         17.81420700     20.72908400     16.16300500   
   202       C          4.12800500     18.29079300      3.34091600   
   203       C         12.27329300     10.14550500      2.67658400   
   204       C          7.90699500      5.77920700     15.37591600   
   205       C         23.83170700     13.92449500     14.71158400   
   206       C         21.39341600      0.23829300      1.88949500   
   207       C         13.92449500     14.71158400     23.83170700   
   208       C         14.71158400     23.83170700     13.92449500   
   209       C         11.79670700     22.18050500      9.35841600   
   210       C         19.94199500      6.25579300      8.69408400   
   211       C          6.25579300      8.69408400     19.94199500   
   212       C         15.37591600      7.90699500      5.77920700   
   213       C          5.77920700     15.37591600      7.90699500   
   214       C         22.18050500      9.35841600     11.79670700   
   215       C          9.35841600     11.79670700     22.18050500   
   216       C         10.14550500      2.67658400     12.27329300   
   217       C          1.88949500     21.39341600      0.23829300   
   218       C          8.69408400     19.94199500      6.25579300   
   219       C         19.29932600     15.89101400     20.03346100   
   220       C          4.03653900      7.26432600     20.21398600   
   221       C          1.98096100     14.19648600     13.28182600   
   222       C         20.03346100     19.29932600     15.89101400   
   223       C         20.21398600      4.03653900      7.26432600   
   224       C          2.16148600     22.82317400     22.08903900   
   225       C         15.89101400     20.03346100     19.29932600   
   226       C          7.26432600     20.21398600      4.03653900   
   227       C         14.19648600     13.28182600      1.98096100   
   228       C          4.77067400      3.85601400     16.07153900   
   229       C         21.90851400     10.78817400     14.01596100   
   230       C         22.08903900      2.16148600     22.82317400   
   231       C         10.78817400     14.01596100     21.90851400   
   232       C         14.01596100     21.90851400     10.78817400   
   233       C          9.87351400      1.24682600     10.05403900   
   234       C         16.80567400      8.17898600      7.99846100   
   235       C          8.17898600      7.99846100     16.80567400   
   236       C         16.07153900      4.77067400      3.85601400   
   237       C          3.85601400     16.07153900      4.77067400   
   238       C          1.24682600     10.05403900      9.87351400   
   239       C         10.05403900      9.87351400      1.24682600   
   240       C         13.28182600      1.98096100     14.19648600   
   241       C         22.82317400     22.08903900      2.16148600   
   242       C          7.99846100     16.80567400      8.17898600   
   243       C         14.79342200     17.30392300     20.81332900   
   244       C          3.25667100      2.75842200     18.80107700   
   245       C          2.76082900     12.78357700      8.77592200   
   246       C         20.81332900     14.79342200     17.30392300   
   247       C         18.80107700      3.25667100      2.75842200   
   248       C          0.74857700      3.25907800     21.30917100   
   249       C         17.30392300     20.81332900     14.79342200   
   250       C          2.75842200     18.80107700      3.25667100   
   251       C         12.78357700      8.77592200      2.76082900   
   252       C          9.27657800      5.26892300     15.29167100   
   253       C         23.32142300     15.29407800     14.79582900   
   254       C         21.30917100      0.74857700      3.25907800   
   255       C         15.29407800     14.79582900     23.32142300   
   256       C         14.79582900     23.32142300     15.29407800   
   257       C         11.28642300     20.81092200      9.27417100   
   258       C         21.31157800      6.76607700      8.77832900   
   259       C          6.76607700      8.77832900     21.31157800   
   260       C         15.29167100      9.27657800      5.26892300   
   261       C          5.26892300     15.29167100      9.27657800   
   262       C         20.81092200      9.27417100     11.28642300   
   263       C          9.27417100     11.28642300     20.81092200   
   264       C          8.77592200      2.76082900     12.78357700   
   265       C          3.25907800     21.30917100      0.74857700   
   266       C          8.77832900     21.31157800      6.76607700   
   267       C         16.88029100     15.47701000     21.48728900   
   268       C          2.58271100      4.84529100     20.62799000   
   269       C          3.43478900     14.61049000     10.86279100   
   270       C         21.48728900     16.88029100     15.47701000   
   271       C         20.62799000      2.58271100      4.84529100   
   272       C          2.57549000      1.17220900     20.63521100   
   273       C         15.47701000     21.48728900     16.88029100   
   274       C          4.84529100     20.62799000      2.58271100   
   275       C         14.61049000     10.86279100      3.43478900   
   276       C          7.18970900      3.44201000     14.61771100   
   277       C         21.49451000     13.20720900     15.46978900   
   278       C         20.63521100      2.57549000      1.17220900   
   279       C         13.20720900     15.46978900     21.49451000   
   280       C         15.46978900     21.49451000     13.20720900   
   281       C          9.45951000     22.89779100      8.60021100   
   282       C         19.22470900      8.59299000      9.45228900   
   283       C          8.59299000      9.45228900     19.22470900   
   284       C         14.61771100      7.18970900      3.44201000   
   285       C          3.44201000     14.61771100      7.18970900   
   286       C         22.89779100      8.60021100      9.45951000   
   287       B          1.17220900     20.63521100      2.57549000   
   288       B          9.45228900     19.22470900      8.59299000   
   289       H         13.45031600     21.59801100     17.55184400   
   290       H          6.51815600      1.41531600     14.50698900   
   291       H         23.56934400      8.48948900      7.43281600   
   292       H         17.55184400     13.45031600     21.59801100   
   293       H         14.50698900      6.51815600      1.41531600   
   294       H         20.52448900      4.60218400      0.50065600   
   295       H         21.59801100     17.55184400     13.45031600   
   296       H          1.41531600     14.50698900      6.51815600   
   297       H          8.48948900      7.43281600     23.56934400   
   298       H         10.61968400      9.56301100     18.55315600   
   299       H          3.54551100     16.63718400     11.53434400   
   300       H          0.50065600     20.52448900      4.60218400   
   301       H         16.63718400     11.53434400      3.54551100   
   302       H         11.53434400      3.54551100     16.63718400   
   303       H         15.58051100     19.46781600     12.53565600   
   304       H         22.65468400      2.47198900      5.51684400   
   305       H          2.47198900      5.51684400     22.65468400   
   306       H         18.55315600     10.61968400      9.56301100   
   307       H          9.56301100     18.55315600     10.61968400   
   308       H         19.46781600     12.53565600     15.58051100   
   309       H         12.53565600     15.58051100     19.46781600   
   310       H          7.43281600     23.56934400      8.48948900   
   311       H          4.60218400      0.50065600     20.52448900   
   312       H          5.51684400     22.65468400      2.47198900   
   313       H         13.74878400     20.12733400     19.49910700   
   314       H          4.57089300      1.71378400     15.97766600   
   315       H          1.44660700      9.96016600      7.73128400   
   316       H         19.49910700     13.74878400     20.12733400   
   317       H         15.97766600      4.57089300      1.71378400   
   318       H         21.99516600      4.30371600     22.62339300   
   319       H         20.12733400     19.49910700     13.74878400   
   320       H          1.71378400     15.97766600      4.57089300   
   321       H          9.96016600      7.73128400      1.44660700   
   322       H         10.32121600      8.09233400     16.60589300   
   323       H          2.07483400     16.33871600     13.48160700   
   324       H         22.62339300     21.99516600      4.30371600   
   325       H         16.33871600     13.48160700      2.07483400   
   326       H         13.48160700      2.07483400     16.33871600   
   327       H         14.10983400     19.76628400     10.58839300   
   328       H         22.35621600      3.94266600      7.46410700   
   329       H          3.94266600      7.46410700     22.35621600   
   330       H         16.60589300     10.32121600      8.09233400   
   331       H          8.09233400     16.60589300     10.32121600   
   332       H         19.76628400     10.58839300     14.10983400   
   333       H         10.58839300     14.10983400     19.76628400   
   334       H          7.73128400      1.44660700      9.96016600   
   335       H          4.30371600     22.62339300     21.99516600   
   336       H          7.46410700     22.35621600      3.94266600   
   337       H         14.00392600     17.89845200     20.33674300   
   338       H          3.73325700      1.96892600     18.20654800   
   339       H          2.28424300     12.18904800      7.98642600   
   340       H         20.33674300     14.00392600     17.89845200   
   341       H         18.20654800      3.73325700      1.96892600   
   342       H          0.15404800      4.04857400     21.78575700   
   343       H         17.89845200     20.33674300     14.00392600   
   344       H          1.96892600     18.20654800      3.73325700   
   345       H         12.18904800      7.98642600      2.28424300   
   346       H         10.06607400      5.86345200     15.76825700   
   347       H         23.91595200     16.08357400     14.31924300   
   348       H         21.78575700      0.15404800      4.04857400   
   349       H         16.08357400     14.31924300     23.91595200   
   350       H         14.31924300     23.91595200     16.08357400   
   351       H         11.88095200     20.02142600      9.75075700   
   352       H         22.10107400      6.17154800      8.30174300   
   353       H          6.17154800      8.30174300     22.10107400   
   354       H         15.76825700     10.06607400      5.86345200   
   355       H          5.86345200     15.76825700     10.06607400   
   356       H         20.02142600      9.75075700     11.88095200   
   357       H          9.75075700     11.88095200     20.02142600   
   358       H          7.98642600      2.28424300     12.18904800   
   359       H          4.04857400     21.78575700      0.15404800   
   360       H          8.30174300     22.10107400      6.17154800   
   361      Tv         24.07000000      0.00000000      0.00000000   
   362      Tv          0.00000000     24.07000000      0.00000000   
   363      Tv          0.00000000      0.00000000     24.07000000   

                             CARTESIAN COORDINATES

   1    N        8.600211000     9.459510000    22.897791000
   2    N       10.862791000     3.434789000    14.610490000
   3    C       17.766067000    14.461256000    21.229740000
   4    C        2.840260000     5.731067000    21.643744000
   5    C        3.177240000    15.626244000    11.748567000
   6    C       21.229740000    17.766067000    14.461256000
   7    C       21.643744000     2.840260000     5.731067000
   8    C        3.591244000     0.286433000    20.892760000
   9    C       14.461256000    21.229740000    17.766067000
  10    C        5.731067000    21.643744000     2.840260000
  11    C       15.626244000    11.748567000     3.177240000
  12    C        6.303933000     2.426256000    14.875260000
  13    C       20.478756000    12.321433000    15.212240000
  14    C       20.892760000     3.591244000     0.286433000
  15    C       12.321433000    15.212240000    20.478756000
  16    C       15.212240000    20.478756000    12.321433000
  17    C        8.443756000    23.783567000     8.857760000
  18    C       18.338933000     9.608744000     9.194740000
  19    C        9.608744000     9.194740000    18.338933000
  20    C       14.875260000     6.303933000     2.426256000
  21    C        2.426256000    14.875260000     6.303933000
  22    C       23.783567000     8.857760000     8.443756000
  23    C        8.857760000     8.443756000    23.783567000
  24    C       11.748567000     3.177240000    15.626244000
  25    C        0.286433000    20.892760000     3.591244000
  26    C        9.194740000    18.338933000     9.608744000
  27    C       18.940683000    14.636967000    20.420988000
  28    C        3.649012000     6.905683000    21.468033000
  29    C        2.368488000    15.450533000    12.923183000
  30    C       20.420988000    18.940683000    14.636967000
  31    C       21.468033000     3.649012000     6.905683000
  32    C        3.415533000    23.181817000    21.701512000
  33    C       14.636967000    20.420988000    18.940683000
  34    C        6.905683000    21.468033000     3.649012000
  35    C       15.450533000    12.923183000     2.368488000
  36    C        5.129317000     2.601967000    15.684012000
  37    C       20.654467000    11.146817000    14.403488000
  38    C       21.701512000     3.415533000    23.181817000
  39    C       11.146817000    14.403488000    20.654467000
  40    C       14.403488000    20.654467000    11.146817000
  41    C        8.619467000     0.888183000     9.666512000
  42    C       17.164317000     9.433033000     8.385988000
  43    C        9.433033000     8.385988000    17.164317000
  44    C       15.684012000     5.129317000     2.601967000
  45    C        2.601967000    15.684012000     5.129317000
  46    C        0.888183000     9.666512000     8.619467000
  47    C        9.666512000     8.619467000     0.888183000
  48    C       12.923183000     2.368488000    15.450533000
  49    C       23.181817000    21.701512000     3.415533000
  50    C        8.385988000    17.164317000     9.433033000
  51    C       15.558848000    15.383137000    22.141993000
  52    C        1.928007000     3.523848000    20.721863000
  53    C        4.089493000    14.704363000     9.541348000
  54    C       22.141993000    15.558848000    15.383137000
  55    C       20.721863000     1.928007000     3.523848000
  56    C        2.669363000     2.493652000    19.980507000
  57    C       15.383137000    22.141993000    15.558848000
  58    C        3.523848000    20.721863000     1.928007000
  59    C       14.704363000     9.541348000     4.089493000
  60    C        8.511152000     3.348137000    13.963007000
  61    C       21.400637000    14.528652000    16.124493000
  62    C       19.980507000     2.669363000     2.493652000
  63    C       14.528652000    16.124493000    21.400637000
  64    C       16.124493000    21.400637000    14.528652000
  65    C        9.365637000    21.576348000     7.945507000
  66    C       20.546152000     8.686863000    10.106993000
  67    C        8.686863000    10.106993000    20.546152000
  68    C       13.963007000     8.511152000     3.348137000
  69    C        3.348137000    13.963007000     8.511152000
  70    C       21.576348000     7.945507000     9.365637000
  71    C        7.945507000     9.365637000    21.576348000
  72    C        9.541348000     4.089493000    14.704363000
  73    C        2.493652000    19.980507000     2.669363000
[...]
  293          H           0.148599        0.8514     0.85140
  294          H           0.149885        0.8501     0.85012
  295          H           0.167161        0.8328     0.83284
  296          H           0.148791        0.8512     0.85121
  297          H           0.194495        0.8055     0.80550
  298          H           0.160063        0.8399     0.83994
  299          H           0.168648        0.8314     0.83135
  300          H           0.121016        0.8790     0.87898
  301          H           0.171361        0.8286     0.82864
  302          H           0.186491        0.8135     0.81351
  303          H           0.161738        0.8383     0.83826
  304          H           0.168770        0.8312     0.83123
  305          H           0.172187        0.8278     0.82781
  306          H           0.163767        0.8362     0.83623
  307          H           0.108393        0.8916     0.89161
  308          H           0.154261        0.8457     0.84574
  309          H           0.169968        0.8300     0.83003
  310          H           0.176446        0.8236     0.82355
  311          H           0.142926        0.8571     0.85707
  312          H           0.150399        0.8496     0.84960
  313          H           0.162009        0.8380     0.83799
  314          H           0.175014        0.8250     0.82499
  315          H           0.164263        0.8357     0.83574
  316          H           0.164075        0.8359     0.83593
  317          H           0.167184        0.8328     0.83282
  318          H           0.150502        0.8495     0.84950
  319          H           0.161933        0.8381     0.83807
  320          H           0.165529        0.8345     0.83447
  321          H           0.205424        0.7946     0.79458
  322          H           0.160673        0.8393     0.83933
  323          H           0.156061        0.8439     0.84394
  324          H           0.127097        0.8729     0.87290
  325          H           0.170315        0.8297     0.82968
  326          H           0.199742        0.8003     0.80026
  327          H           0.178762        0.8212     0.82124
  328          H           0.158583        0.8414     0.84142
  329          H           0.152862        0.8471     0.84714
  330          H           0.158022        0.8420     0.84198
  331          H           0.128377        0.8716     0.87162
  332          H           0.157141        0.8429     0.84286
  333          H           0.161699        0.8383     0.83830
  334          H           0.151006        0.8490     0.84899
  335          H           0.164314        0.8357     0.83569
  336          H           0.146928        0.8531     0.85307
  337          H           0.169166        0.8308     0.83083
  338          H           0.173736        0.8263     0.82626
  339          H           0.168730        0.8313     0.83127
  340          H           0.167489        0.8325     0.83251
  341          H           0.165239        0.8348     0.83476
  342          H           0.163631        0.8364     0.83637
  343          H           0.174821        0.8252     0.82518
  344          H           0.167720        0.8323     0.83228
  345          H           0.169726        0.8303     0.83027
  346          H           0.171397        0.8286     0.82860
  347          H           0.172212        0.8278     0.82779
  348          H           0.172884        0.8271     0.82712
  349          H           0.175843        0.8242     0.82416
  350          H           0.165709        0.8343     0.83429
  351          H           0.172957        0.8270     0.82704
  352          H           0.172358        0.8276     0.82764
  353          H           0.178492        0.8215     0.82151
  354          H           0.172647        0.8274     0.82735
  355          H           0.166386        0.8336     0.83361
  356          H           0.166135        0.8339     0.83387
  357          H           0.184919        0.8151     0.81508
  358          H           0.189019        0.8110     0.81098
  359          H           0.150321        0.8497     0.84968
  360          H           0.151972        0.8480     0.84803


          ATOMIC ORBITAL ELECTRON POPULATIONS

     Atom    s        px        py        pz   
    1  N   1.52911   1.33074   1.11932   1.16984
    2  N   1.53039   1.16908   1.33685   1.12371
    3  C   1.08622   0.98384   1.06768   0.99957
    4  C   1.08265   1.03531   0.99255   1.08468
    5  C   1.08283   1.03034   1.08037   0.99179
    6  C   1.08469   1.01622   0.98714   1.07681
    7  C   1.08341   1.07939   1.02655   0.99110
    8  C   1.08769   1.05717   0.98016   0.98204
    9  C   1.08599   1.07016   1.00199   0.98277
   10  C   1.08249   0.99202   1.07277   1.02613
   11  C   1.08578   1.07738   0.98761   1.01398
   12  C   1.08868   0.97838   1.06743   0.98378
   13  C   1.08443   1.06993   0.98723   1.01088
   14  C   1.08377   1.01226   1.06930   0.98685
   15  C   1.08348   0.99197   1.03062   1.08222
   16  C   1.08770   0.99549   1.06725   0.98411
   17  C   1.08036   1.09292   0.99850   1.05943
   18  C   1.08380   0.98884   1.07646   1.02083
   19  C   1.08603   1.06900   0.99882   0.98378
   20  C   1.08767   0.98569   0.97941   1.06156
   21  C   1.08652   1.06225   0.99234   0.98157
   22  C   1.08585   0.98420   1.00205   1.06871
   23  C   1.11070   0.91148   0.95129   0.91652
   24  C   1.10794   0.92105   0.92150   0.94998
   25  C   1.10460   0.96139   0.94804   1.11905
   26  C   1.10980   0.92172   0.95584   1.11085
   27  C   1.08205   1.00496   1.05078   1.00507
   28  C   1.08670   0.97135   0.99046   1.03496
   29  C   1.08534   0.98196   1.03847   0.99531
   30  C   1.08517   0.98404   0.99582   1.04283
   31  C   1.08550   1.04034   0.98172   0.99498
   32  C   1.07731   1.05918   1.02149   1.04042
   33  C   1.08238   1.04807   1.00274   1.00436
   34  C   1.08051   1.00958   1.04349   1.01256
   35  C   1.08754   1.04575   0.98864   0.97149
   36  C   1.08336   1.00342   1.05256   1.00120
   37  C   1.08141   1.04655   1.00659   1.00721
   38  C   1.07949   1.01855   1.04540   1.01280
   39  C   1.08808   0.98376   0.95975   1.03795
   40  C   1.08510   0.99092   1.05521   0.99702
   41  C   1.08999   1.02702   0.97857   0.94421
   42  C   1.08411   0.99847   1.04137   0.98932
   43  C   1.08196   1.04759   1.00350   1.00427
   44  C   1.07963   1.02252   1.01319   1.05554
   45  C   1.07902   1.05412   1.02693   1.01612
   46  C   1.08186   1.00692   1.00759   1.04938
   47  C   1.07886   1.06458   1.08742   1.03480
   48  C   1.07743   1.03665   1.06981   1.08667
   49  C   1.08862   1.00145   0.98463   1.01710
   50  C   1.08475   1.01111   1.01409   1.02480
   51  C   1.07167   0.96724   0.95312   0.96577
   52  C   1.06150   1.01069   0.96570   1.05626
   53  C   1.06074   1.00821   1.05409   0.96707
   54  C   1.06539   0.99030   0.96666   1.01037
   55  C   1.05862   1.06647   1.01279   0.96738
   56  C   1.07621   0.90900   0.96747   0.94474
   57  C   1.07674   0.92381   0.95517   0.96590
   58  C   1.07899   0.96266   0.94953   0.96890
   59  C   1.06312   1.04204   0.97120   1.00455
   60  C   1.06056   0.96971   1.03799   0.99451
   61  C   1.07106   0.96096   0.96639   0.96899
   62  C   1.07457   0.95262   0.92529   0.96299
   63  C   1.06550   0.96662   0.99532   1.01869
   64  C   1.06661   0.98827   1.00599   0.97279
   65  C   1.06902   1.05119   0.96068   1.01400
   66  C   1.06795   0.96607   0.99138   0.98243
   67  C   1.06397   1.00934   0.98383   0.96980
   68  C   1.07971   0.94054   0.96693   0.89292
   69  C   1.07462   0.92132   0.94984   0.96550
   70  C   1.06877   0.96718   0.97508   0.97687
   71  C   1.06295   0.99670   1.09832   0.79400
   72  C   1.06888   0.79388   0.97950   1.05638
   73  C   1.09395   1.02988   0.93585   0.85544
   74  C   1.10793   0.89863   1.03410   0.76987
   75  C   1.07001   0.97648   0.97423   0.95855
   76  C   1.06627   0.95699   0.98537   0.99227
   77  C   1.06946   0.96021   0.97821   0.97786
   78  C   1.06812   0.95721   0.97916   0.98027
   79  C   1.06895   0.98684   0.95911   0.98592
   80  C   1.07387   0.98199   0.98813   0.96366
   81  C   1.06951   0.96780   0.95892   0.96862
   82  C   1.07145   0.99397   0.99354   0.96415
   83  C   1.07144   0.97079   0.98173   0.95123
   84  C   1.06904   0.98456   0.98180   0.95451
   85  C   1.07185   0.96105   0.96441   0.96352
   86  C   1.06548   0.96957   0.99356   0.97354
   87  C   1.06576   0.96036   0.95344   0.96368
   88  C   1.07397   0.95110   0.96870   0.98488
   89  C   1.06482   0.97601   0.96902   0.95377
   90  C   1.07008   0.96502   0.96481   0.96197
   91  C   1.07142   0.95888   0.96378   0.96053
   92  C   1.07205   0.96099   0.97018   0.96490
   93  C   1.06601   1.00011   0.96506   0.98717
   94  C   1.07126   0.97657   0.96065   0.97275
   95  C   1.07256   0.95915   0.94570   0.95344
   96  C   1.07600   0.93331   0.96662   0.92321
   97  C   1.06497   1.00283   0.95790   1.01353
   98  C   1.06987   0.96613   0.97553   0.97848
   99  C   1.06579   0.98244   0.98678   0.99798
  100  C   1.06571   0.97917   0.98026   0.97294
  101  C   1.06655   0.98274   0.97572   0.98181
  102  C   1.06591   0.98773   0.98115   0.97991
  103  C   1.06681   0.97624   0.98197   0.98059
  104  C   1.06674   0.99813   0.98738   1.01635
  105  C   1.06519   0.98587   0.99986   0.98402
  106  C   1.06672   0.98417   0.98125   0.99235
  107  C   1.06934   0.98098   0.97251   0.96510
  108  C   1.06610   0.98311   0.98908   1.00327
  109  C   1.06539   0.98385   0.98495   0.99913
  110  C   1.06259   1.01925   0.98510   0.99110
  111  C   1.06475   0.97862   0.97848   0.97295
  112  C   1.07049   0.97696   0.98787   0.97496
  113  C   1.06577   0.96058   0.97776   0.96139
  114  C   1.06538   0.98358   0.97994   0.99178
  115  C   1.06425   0.98730   1.00114   0.98218
  116  C   1.06576   1.00987   0.98634   0.99148
  117  C   1.06469   0.99058   1.02304   0.99211
  118  C   1.06649   0.98462   0.99906   0.98547
  119  C   1.06675   1.04212   1.02834   0.98719
  120  C   1.06630   0.98785   1.04445   1.02918
  121  C   1.06275   0.99926   1.00841   0.94472
  122  C   1.06083   1.02727   1.00270   0.95394
  123  C   1.07537   0.97122   0.96724   0.98249
  124  C   1.06549   1.05919   0.96102   0.99776
  125  C   1.06690   1.05303   0.99649   0.96333
  126  C   1.06990   1.02403   0.96680   0.98332
  127  C   1.06487   0.99753   1.06225   0.96458
  128  C   1.08058   0.95441   0.97706   0.94761
  129  C   1.07720   0.96605   0.97360   0.96849
  130  C   1.06607   0.96250   0.99839   1.06201
  131  C   1.05655   1.00885   0.97328   1.11799
  132  C   1.07584   0.97376   0.96249   0.97295
  133  C   1.07751   0.96782   0.96691   0.97386
  134  C   1.09097   0.89464   0.94711   0.96465
  135  C   1.06983   0.96204   1.02385   0.98459
  136  C   1.05859   1.10372   1.00273   0.97663
  137  C   1.05655   1.02358   0.95050   1.12998
  138  C   1.07454   0.96496   0.97675   0.99695
  139  C   1.08337   0.94667   0.92179   0.97289
  140  C   1.08007   0.95264   0.97147   0.95792
  141  C   1.08713   0.95461   0.92180   0.96940
  142  C   1.07343   0.96916   1.00172   0.97603
  143  C   1.08597   0.90442   0.94021   0.97284
  144  C   1.09196   0.97348   0.87091   0.93142
  145  C   1.06146   0.96116   1.09327   1.00598
  146  C   1.07384   1.00327   0.96688   0.97438
  147  C   1.05957   0.97206   0.99882   0.99804
  148  C   1.05627   0.98110   0.99239   1.01364
  149  C   1.05721   0.97350   0.99273   0.98414
  150  C   1.06292   0.96464   0.99049   0.96846
  151  C   1.05997   1.00174   0.97559   0.99882
  152  C   1.05548   1.01168   0.98723   0.98170
  153  C   1.05609   1.00454   0.97927   0.98474
  154  C   1.05110   0.98263   1.03105   0.98791
  155  C   1.05983   0.99252   0.97547   0.99289
  156  C   1.05815   0.99354   1.00660   0.98000
  157  C   1.05350   1.02538   0.98708   0.98699
  158  C   1.05607   0.97727   1.00499   0.98787
  159  C   1.05680   0.99632   0.98076   1.01532
  160  C   1.05584   0.98568   1.01975   0.99116
  161  C   1.05898   0.99385   0.99136   0.97375
  162  C   1.05280   1.00369   1.01620   0.95794
  163  C   1.05482   1.02960   0.98839   0.99385
  164  C   1.04783   1.00232   0.98900   1.06887
  165  C   1.05404   1.00090   0.95516   0.99760
  166  C   1.06050   0.98508   0.97318   0.98093
  167  C   1.05985   0.97804   0.99527   0.99097
  168  C   1.05468   0.99126   0.98505   1.02282
  169  C   1.05757   0.98696   0.97416   0.99502
  170  C   1.05642   0.97804   0.99143   1.00982
  171  C   1.06028   0.97536   0.97542   1.00462
  172  C   1.06408   1.02417   0.97407   0.99706
  173  C   1.06303   1.02550   0.99474   0.97359
  174  C   1.06181   1.01683   0.97418   0.98694
  175  C   1.06245   0.99319   1.02551   0.97300
  176  C   1.05966   0.96511   0.97595   0.98941
  177  C   1.06123   0.97758   1.00369   0.97604
  178  C   1.06352   0.97515   0.98948   1.01557
  179  C   1.06073   0.99395   0.97858   1.04387
  180  C   1.06001   0.97531   0.97460   1.00367
  181  C   1.06121   0.97907   0.97460   1.00562
  182  C   1.06244   0.98174   0.97179   0.97215
  183  C   1.06239   0.97481   1.02253   0.99137
  184  C   1.05911   1.03868   0.98581   0.97903
  185  C   1.06581   1.01107   0.97252   1.04189
  186  C   1.06218   0.97445   0.98626   1.01361
  187  C   1.05990   0.97154   0.99994   0.97667
  188  C   1.05998   0.99550   0.97599   0.96951
  189  C   1.06113   0.96993   0.98531   0.97253
  190  C   1.06087   0.97413   1.00898   0.98009
  191  C   1.07128   0.97861   0.83604   0.97001
  192  C   1.07183   0.97169   0.97872   0.83124
  193  C   1.08146   0.94725   0.93228   1.02484
  194  C   1.08011   0.90963   0.94836   1.01142
  195  C   1.06393   0.96444   0.96084   1.00228
  196  C   1.07299   0.90716   0.97145   0.93555
  197  C   1.07170   0.91963   0.93849   0.97013
  198  C   1.06856   0.95201   0.96685   0.94814
  199  C   1.07205   0.93715   0.91192   0.96793
  200  C   1.05919   0.97271   0.96226   1.05271
  201  C   1.06409   0.96135   1.00644   0.96809
  202  C   1.07538   0.98062   0.93289   0.91011
  203  C   1.07892   0.92628   0.96954   0.84913
  204  C   1.05881   0.94689   0.96814   1.02375
  205  C   1.06337   0.96058   0.96627   1.00797
  206  C   1.05514   1.09251   0.98015   0.96360
  207  C   1.06998   0.96869   0.94016   0.94563
  208  C   1.07707   0.87086   0.93152   0.96802
  209  C   1.08402   0.91289   0.98380   0.82536
  210  C   1.06625   0.96779   0.95386   0.97886
  211  C   1.05413   0.97972   1.07167   0.94439
  212  C   1.06127   1.03618   0.96624   0.96840
  213  C   1.05770   0.97515   1.06920   0.96428
  214  C   1.06575   0.96610   0.98275   0.95501
  215  C   1.05673   1.06777   0.97472   0.96435
  216  C   1.05365   0.96344   1.10498   0.98361
  217  C   1.08059   0.98258   0.89504   0.93312
  218  C   1.07045   0.99850   0.97618   0.95946
  219  C   1.07175   0.96593   0.97041   0.95965
  220  C   1.06328   1.01187   1.00390   0.98765
  221  C   1.06530   0.99695   0.98131   0.99420
  222  C   1.06717   0.98719   0.98642   0.97989
  223  C   1.06564   0.97910   0.99112   0.99041
  224  C   1.08002   0.95659   0.94204   0.92465
  225  C   1.07113   0.97529   0.96913   0.97223
  226  C   1.07138   0.97946   0.97188   0.97350
  227  C   1.06736   0.97517   0.98507   0.98281
  228  C   1.07235   0.96010   0.96821   0.95205
  229  C   1.07068   0.97369   0.97265   0.96888
  230  C   1.07126   0.97201   0.97786   0.97383
  231  C   1.06176   1.00073   1.01156   0.98921
  232  C   1.07230   0.94793   0.96113   0.95917
  233  C   1.05612   0.99806   1.02313   1.04279
  234  C   1.06755   0.98804   0.98143   0.99011
  235  C   1.07145   0.97534   0.96869   0.97160
  236  C   1.07534   0.93946   0.95009   0.96426
  237  C   1.07445   0.96520   0.94174   0.95182
  238  C   1.07152   0.96538   0.95829   0.96927
  239  C   1.08964   0.86894   0.94630   0.89208
  240  C   1.09034   0.89308   0.87084   0.94597
  241  C   1.05604   1.01617   1.03636   0.99695
  242  C   1.06297   1.00197   0.99157   0.98979
  243  C   1.08852   1.02967   1.00556   0.98590
  244  C   1.07571   1.11266   1.02413   1.04384
  245  C   1.07657   1.10151   1.04005   1.02574
  246  C   1.08144   1.05419   1.02815   1.02609
  247  C   1.07687   1.03874   1.09749   1.02798
  248  C   1.09218   0.99361   1.03121   0.94718
  249  C   1.08758   1.00988   0.99694   1.02577
  250  C   1.07753   1.00691   1.06309   1.10664
  251  C   1.07566   1.04876   1.02947   1.12214
  252  C   1.08814   1.05245   0.99024   1.00705
  253  C   1.08708   1.00790   1.02648   0.99680
  254  C   1.09254   0.93883   0.98886   1.02597
  255  C   1.08113   1.02578   1.05984   1.02732
  256  C   1.07890   1.08753   1.03828   1.03102
  257  C   1.07162   1.08737   1.00339   1.18528
  258  C   1.08318   1.02585   1.01995   1.03621
  259  C   1.09284   0.97452   0.96111   1.05101
  260  C   1.09164   0.95573   1.02737   0.99729
  261  C   1.09130   0.99402   0.95208   1.02811
  262  C   1.08480   1.02855   1.01949   1.01552
  263  C   1.08479   1.01273   1.00385   1.02007
  264  C   1.08812   1.01913   0.98044   0.99307
  265  C   1.08001   1.02865   1.06032   1.03802
  266  C   1.09269   0.93837   1.03035   1.00142
  267  C   1.06249   0.97036   0.98312   1.01235
  268  C   1.07120   0.94243   0.96260   0.95915
  269  C   1.06868   0.95580   0.96109   0.96385
  270  C   1.06661   0.97643   0.96603   0.97055
  271  C   1.06741   0.96095   0.95900   0.96363
  272  C   1.05764   0.99429   0.97662   1.05416
  273  C   1.06473   0.98430   1.00889   0.97220
  274  C   1.06917   0.97059   0.97203   0.98191
  275  C   1.06582   0.96456   0.96703   0.97000
  276  C   1.05775   0.96775   0.98125   1.02205
  277  C   1.06439   0.97972   0.96896   1.00040
  278  C   1.06536   1.00825   0.98693   0.96898
  279  C   1.07041   0.96188   0.95204   0.96672
  280  C   1.06065   1.00729   0.97364   0.97273
  281  C   1.07908   0.94787   0.95745   0.90431
  282  C   1.06745   0.96613   0.97273   0.97709
  283  C   1.06022   0.98487   1.01143   0.96301
  284  C   1.06028   1.04143   0.97652   0.99231
  285  C   1.06076   0.98990   1.03589   0.97492
  286  C   1.06253   0.97085   1.00738   0.97814
  287  B   0.59486   0.93794   0.89332   0.96080
  288  B   0.58010   0.97021   0.93724   0.97589
  289  H   0.84245
  290  H   0.83324
  291  H   0.84208
  292  H   0.84478
  293  H   0.85140
  294  H   0.85012
  295  H   0.83284
  296  H   0.85121
  297  H   0.80550
  298  H   0.83994
  299  H   0.83135
  300  H   0.87898
  301  H   0.82864
  302  H   0.81351
  303  H   0.83826
  304  H   0.83123
  305  H   0.82781
  306  H   0.83623
  307  H   0.89161
  308  H   0.84574
  309  H   0.83003
  310  H   0.82355
  311  H   0.85707
  312  H   0.84960
  313  H   0.83799
  314  H   0.82499
  315  H   0.83574
  316  H   0.83593
  317  H   0.83282
  318  H   0.84950
  319  H   0.83807
  320  H   0.83447
  321  H   0.79458
  322  H   0.83933
  323  H   0.84394
  324  H   0.87290
  325  H   0.82968
  326  H   0.80026
  327  H   0.82124
  328  H   0.84142
  329  H   0.84714
  330  H   0.84198
  331  H   0.87162
  332  H   0.84286
  333  H   0.83830
  334  H   0.84899
  335  H   0.83569
  336  H   0.85307
  337  H   0.83083
  338  H   0.82626
  339  H   0.83127
  340  H   0.83251
  341  H   0.83476
  342  H   0.83637
  343  H   0.82518
  344  H   0.83228
  345  H   0.83027
  346  H   0.82860
  347  H   0.82779
  348  H   0.82712
  349  H   0.82416
  350  H   0.83429
  351  H   0.82704
  352  H   0.82764
  353  H   0.82151
  354  H   0.82735
  355  H   0.83361
  356  H   0.83387
  357  H   0.81508
  358  H   0.81098
  359  H   0.84968
  360  H   0.84803

 **********************
 *                    *
 * JOB ENDED NORMALLY *
 *                    *
 **********************



 TOTAL JOB TIME:            32.55 SECONDS

 == MOPAC DONE ==
