 *******************************************************************************
 **                                                                           **
 **                              MOPAC v22.1.0                                **
 **                                                                           **
 *******************************************************************************
 **          Digital Object Identifier (DOI): 10.5281/zenodo.6511958          **
 **    Visit the DOI location for information on how to cite this program.    **
 *******************************************************************************

                              PM7 CALCULATION RESULTS

 *******************************************************************************
 *  CALCULATION DONE:                                Wed Jan 31 12:33:35 2024  *
 *  PM7        - The PM7 Hamiltonian to be used
 *  NOOPT      - DO NOT OPTIMIZE ANY COORDINATES
 *
 *
 *
 *                 CHARGE ON SYSTEM = 0
 *
 *
 *
 *  T=         - A TIME OF 172800.0 SECONDS REQUESTED
 *  DUMP=N     - RESTART FILE WRITTEN EVERY 7200.0 SECONDS REQUESTED
 *******************************************************************************
PM7 CHARGE=0 NOOPT


   ATOM   CHEMICAL          X               Y               Z
  NUMBER   SYMBOL      (ANGSTROMS)     (ANGSTROMS)     (ANGSTROMS)

     1       N         16.54812500     19.02011400     20.18991600   
     2       N          3.88008400      4.51312500     17.08488600   
     3       N         20.18991600     16.54812500     19.02011400   
     4       N         17.08488600      3.88008400      4.51312500   
     5       N         19.02011400     20.18991600     16.54812500   
     6       N          4.51312500     17.08488600      3.88008400   
     7       N          7.52187500      6.98511400     15.91508400   
     8       N         19.55687500      5.04988600      8.15491600   
     9       N          5.04988600      8.15491600     19.55687500   
    10       N         15.91508400      7.52187500      6.98511400   
    11       N          6.98511400     15.91508400      7.52187500   
    12       N          8.15491600     19.55687500      5.04988600   
    13       N         16.88029100     15.47701000     21.48728900   
    14       N          2.58271100      4.84529100     20.62799000   
    15       N         21.48728900     16.88029100     15.47701000   
    16       N         20.62799000      2.58271100      4.84529100   
    17       N         15.47701000     21.48728900     16.88029100   
    18       N          4.84529100     20.62799000      2.58271100   
    19       N          7.18970900      3.44201000     14.61771100   
    20       N         19.22470900      8.59299000      9.45228900   
    21       N          8.59299000      9.45228900     19.22470900   
    22       N         14.61771100      7.18970900      3.44201000   
    23       N          3.44201000     14.61771100      7.18970900   
    24       N          9.45228900     19.22470900      8.59299000   
    25       C         17.76606700     14.46125600     21.22974000   
    26       C          2.84026000      5.73106700     21.64374400   
    27       C          3.17724000     15.62624400     11.74856700   
    28       C         21.22974000     17.76606700     14.46125600   
    29       C         21.64374400      2.84026000      5.73106700   
    30       C          3.59124400      0.28643300     20.89276000   
    31       C         14.46125600     21.22974000     17.76606700   
    32       C          5.73106700     21.64374400      2.84026000   
    33       C         15.62624400     11.74856700      3.17724000   
    34       C          6.30393300      2.42625600     14.87526000   
    35       C         20.47875600     12.32143300     15.21224000   
    36       C         20.89276000      3.59124400      0.28643300   
    37       C         12.32143300     15.21224000     20.47875600   
    38       C         15.21224000     20.47875600     12.32143300   
    39       C          8.44375600     23.78356700      8.85776000   
    40       C         18.33893300      9.60874400      9.19474000   
    41       C          9.60874400      9.19474000     18.33893300   
    42       C         14.87526000      6.30393300      2.42625600   
    43       C          2.42625600     14.87526000      6.30393300   
    44       C         23.78356700      8.85776000      8.44375600   
    45       C          8.85776000      8.44375600     23.78356700   
    46       C         11.74856700      3.17724000     15.62624400   
    47       C          0.28643300     20.89276000      3.59124400   
    48       C          9.19474000     18.33893300      9.60874400   
    49       C         18.94068300     14.63696700     20.42098800   
    50       C          3.64901200      6.90568300     21.46803300   
    51       C          2.36848800     15.45053300     12.92318300   
    52       C         20.42098800     18.94068300     14.63696700   
    53       C         21.46803300      3.64901200      6.90568300   
    54       C          3.41553300     23.18181700     21.70151200   
    55       C         14.63696700     20.42098800     18.94068300   
    56       C          6.90568300     21.46803300      3.64901200   
    57       C         15.45053300     12.92318300      2.36848800   
    58       C          5.12931700      2.60196700     15.68401200   
    59       C         20.65446700     11.14681700     14.40348800   
    60       C         21.70151200      3.41553300     23.18181700   
    61       C         11.14681700     14.40348800     20.65446700   
    62       C         14.40348800     20.65446700     11.14681700   
    63       C          8.61946700      0.88818300      9.66651200   
    64       C         17.16431700      9.43303300      8.38598800   
    65       C          9.43303300      8.38598800     17.16431700   
    66       C         15.68401200      5.12931700      2.60196700   
    67       C          2.60196700     15.68401200      5.12931700   
    68       C          0.88818300      9.66651200      8.61946700   
    69       C          9.66651200      8.61946700      0.88818300   
    70       C         12.92318300      2.36848800     15.45053300   
    71       C         23.18181700     21.70151200      3.41553300   
    72       C          8.38598800     17.16431700      9.43303300   
    73       C         15.55884800     15.38313700     22.14199300   
    74       C          1.92800700      3.52384800     20.72186300   
    75       C          4.08949300     14.70436300      9.54134800   
    76       C         22.14199300     15.55884800     15.38313700   
    77       C         20.72186300      1.92800700      3.52384800   
    78       C          2.66936300      2.49365200     19.98050700   
    79       C         15.38313700     22.14199300     15.55884800   
    80       C          3.52384800     20.72186300      1.92800700   
    81       C         14.70436300      9.54134800      4.08949300   
    82       C          8.51115200      3.34813700     13.96300700   
    83       C         21.40063700     14.52865200     16.12449300   
    84       C         19.98050700      2.66936300      2.49365200   
    85       C         14.52865200     16.12449300     21.40063700   
    86       C         16.12449300     21.40063700     14.52865200   
    87       C          9.36563700     21.57634800      7.94550700   
    88       C         20.54615200      8.68686300     10.10699300   
    89       C          8.68686300     10.10699300     20.54615200   
    90       C         13.96300700      8.51115200      3.34813700   
    91       C          3.34813700     13.96300700      8.51115200   
    92       C         21.57634800      7.94550700      9.36563700   
    93       C          7.94550700      9.36563700     21.57634800   
    94       C          9.54134800      4.08949300     14.70436300   
    95       C          2.49365200     19.98050700      2.66936300   
    96       C         10.10699300     20.54615200      8.68686300   
    97       C         19.21748800     19.98050700     17.98510400   
    98       C          6.08489600      7.18248800     16.12449300   
    99       C         24.00260400     10.10699300     13.19998800   
   100       C         17.98510400     19.21748800     19.98050700   
   101       C         16.12449300      6.08489600      7.18248800   
   102       C         22.14199300     22.90501200      0.06739600   
   103       C         19.98050700     17.98510400     19.21748800   
   104       C          7.18248800     16.12449300      6.08489600   
   105       C         10.10699300     13.19998800     24.00260400   
   106       C          4.85251200      7.94550700     18.11989600   
   107       C          1.92800700     10.87001200     11.96760400   
   108       C          0.06739600     22.14199300     22.90501200   
   109       C         10.87001200     11.96760400      1.92800700   
   110       C         11.96760400      1.92800700     10.87001200   
   111       C         13.96300700      1.16498800     12.10239600   
   112       C         16.88751200      4.08949300      5.95010400   
   113       C          4.08949300      5.95010400     16.88751200   
   114       C         18.11989600      4.85251200      7.94550700   
   115       C          7.94550700     18.11989600      4.85251200   
   116       C          1.16498800     12.10239600     13.96300700   
   117       C         12.10239600     13.96300700      1.16498800   
   118       C         13.19998800     24.00260400     10.10699300   
   119       C         22.90501200      0.06739600     22.14199300   
   120       C          5.95010400     16.88751200      4.08949300   
   121       C         18.45687600     16.94528000     20.56300100   
   122       C          3.50699900      6.42187600     19.15972000   
   123       C          2.51050100     13.14222000     12.43937600   
   124       C         20.56300100     18.45687600     16.94528000   
   125       C         19.15972000      3.50699900      6.42187600   
   126       C          1.10722000     23.66562400     21.55949900   
   127       C         16.94528000     20.56300100     18.45687600   
   128       C          6.42187600     19.15972000      3.50699900   
   129       C         13.14222000     12.43937600      2.51050100   
   130       C          5.61312400      4.91028000     15.54199900   
   131       C         22.96278000     11.63062400     14.54550100   
   132       C         21.55949900      1.10722000     23.66562400   
   133       C         11.63062400     14.54550100     22.96278000   
   134       C         14.54550100     22.96278000     11.63062400   
   135       C         10.92778000      0.40437600      9.52449900   
   136       C         17.64812400      7.12472000      8.52800100   
   137       C          7.12472000      8.52800100     17.64812400   
   138       C         15.54199900      5.61312400      4.91028000   
   139       C          4.91028000     15.54199900      5.61312400   
   140       C          0.40437600      9.52449900     10.92778000   
   141       C          9.52449900     10.92778000      0.40437600   
   142       C         12.43937600      2.51050100     13.14222000   
   143       C         23.66562400     21.55949900      1.10722000   
   144       C          8.52800100     17.64812400      7.12472000   
   145       C          2.13741600     11.06738600     10.53062500   
   146       C         23.10238600      1.50437500     21.93258400   
   147       C         11.06738600     10.53062500      2.13741600   
   148       C          0.96761400     13.53937500     14.17241600   
   149       C         21.93258400     23.10238600      1.50437500   
   150       C         13.53937500     14.17241600      0.96761400   
   151       C         14.17241600      0.96761400     13.53937500   
   152       C         13.00261400     22.56562500      9.89758400   
   153       C         22.56562500      9.89758400     13.00261400   
   154       C          9.89758400     13.00261400     22.56562500   
   155       C         10.53062500      2.13741600     11.06738600   
   156       C          1.50437500     21.93258400     23.10238600   
   157       C         23.22514300     21.99035200     23.90873100   
   158       C          0.16126900     11.19014300     14.11464800   
   159       C          5.85623100      8.09714800     17.20764300   
   160       C         23.90873100     23.22514300     21.99035200   
   161       C         14.11464800      0.16126900     11.19014300   
   162       C         20.13214800     18.89735700     18.21376900   
   163       C         21.99035200     23.90873100     23.22514300   
   164       C         11.19014300     14.11464800      0.16126900   
   165       C          8.09714800     17.20764300      5.85623100   
   166       C          0.84485700      9.95535200     12.19626900   
   167       C          3.93785200      6.86235700     17.89123100   
   168       C         18.21376900     20.13214800     18.89735700   
   169       C          6.86235700     17.89123100      3.93785200   
   170       C         17.89123100      3.93785200      6.86235700   
   171       C         15.97285200      5.17264300      6.17876900   
   172       C         12.87985700      2.07964800     11.87373100   
   173       C          2.07964800     11.87373100     12.87985700   
   174       C         12.19626900      0.84485700      9.95535200   
   175       C          9.95535200     12.19626900      0.84485700   
   176       C          5.17264300      6.17876900     15.97285200   
   177       C          6.17876900     15.97285200      5.17264300   
   178       C         17.20764300      5.85623100      8.09714800   
   179       C         18.89735700     18.21376900     20.13214800   
   180       C         11.87373100     12.87985700      2.07964800   
   181       C         17.16672400     16.79123200     21.00829600   
   182       C          3.06170400      5.13172400     19.31376800   
   183       C          2.95579600     13.29626800     11.14922400   
   184       C         21.00829600     17.16672400     16.79123200   
   185       C         19.31376800      3.06170400      5.13172400   
   186       C          1.26126800      0.88577600     21.11420400   
   187       C         16.79123200     21.00829600     17.16672400   
   188       C          5.13172400     19.31376800      3.06170400   
   189       C         13.29626800     11.14922400      2.95579600   
   190       C          6.90327600      4.75623200     15.09670400   
   191       C         22.80873200     12.92077600     14.99079600   
   192       C         21.11420400      1.26126800      0.88577600   
   193       C         12.92077600     14.99079600     22.80873200   
   194       C         14.99079600     22.80873200     12.92077600   
   195       C         10.77373200     23.18422400      9.07920400   
   196       C         18.93827600      7.27876800      8.97329600   
   197       C          7.27876800      8.97329600     18.93827600   
   198       C         15.09670400      6.90327600      4.75623200   
   199       C          4.75623200     15.09670400      6.90327600   
   200       C         23.18422400      9.07920400     10.77373200   
   201       C          9.07920400     10.77373200     23.18422400   
   202       C         11.14922400      2.95579600     13.29626800   
   203       C          0.88577600     21.11420400      1.26126800   
   204       C          8.97329600     18.93827600      7.27876800   
   205       C         16.16300500     17.81420700     20.72908400   
   206       C          3.34091600      4.12800500     18.29079300   
   207       C          2.67658400     12.27329300     10.14550500   
   208       C         20.72908400     16.16300500     17.81420700   
   209       C         18.29079300      3.34091600      4.12800500   
   210       C          0.23829300      1.88949500     21.39341600   
   211       C         17.81420700     20.72908400     16.16300500   
   212       C          4.12800500     18.29079300      3.34091600   
   213       C         12.27329300     10.14550500      2.67658400   
   214       C          7.90699500      5.77920700     15.37591600   
   215       C         23.83170700     13.92449500     14.71158400   
   216       C         21.39341600      0.23829300      1.88949500   
   217       C         13.92449500     14.71158400     23.83170700   
   218       C         14.71158400     23.83170700     13.92449500   
   219       C         11.79670700     22.18050500      9.35841600   
   220       C         19.94199500      6.25579300      8.69408400   
   221       C          6.25579300      8.69408400     19.94199500   
   222       C         15.37591600      7.90699500      5.77920700   
   223       C          5.77920700     15.37591600      7.90699500   
   224       C         22.18050500      9.35841600     11.79670700   
   225       C          9.35841600     11.79670700     22.18050500   
   226       C         10.14550500      2.67658400     12.27329300   
   227       C          1.88949500     21.39341600      0.23829300   
   228       C          8.69408400     19.94199500      6.25579300   
   229       C         19.29932600     15.89101400     20.03346100   
   230       C          4.03653900      7.26432600     20.21398600   
   231       C          1.98096100     14.19648600     13.28182600   
   232       C         20.03346100     19.29932600     15.89101400   
   233       C         20.21398600      4.03653900      7.26432600   
   234       C          2.16148600     22.82317400     22.08903900   
   235       C         15.89101400     20.03346100     19.29932600   
   236       C          7.26432600     20.21398600      4.03653900   
   237       C         14.19648600     13.28182600      1.98096100   
   238       C          4.77067400      3.85601400     16.07153900   
   239       C         21.90851400     10.78817400     14.01596100   
   240       C         22.08903900      2.16148600     22.82317400   
   241       C         10.78817400     14.01596100     21.90851400   
   242       C         14.01596100     21.90851400     10.78817400   
   243       C          9.87351400      1.24682600     10.05403900   
   244       C         16.80567400      8.17898600      7.99846100   
   245       C          8.17898600      7.99846100     16.80567400   
   246       C         16.07153900      4.77067400      3.85601400   
   247       C          3.85601400     16.07153900      4.77067400   
   248       C          1.24682600     10.05403900      9.87351400   
   249       C         10.05403900      9.87351400      1.24682600   
   250       C         13.28182600      1.98096100     14.19648600   
   251       C         22.82317400     22.08903900      2.16148600   
   252       C          7.99846100     16.80567400      8.17898600   
   253       C         14.79342200     17.30392300     20.81332900   
   254       C          3.25667100      2.75842200     18.80107700   
   255       C          2.76082900     12.78357700      8.77592200   
   256       C         20.81332900     14.79342200     17.30392300   
   257       C         18.80107700      3.25667100      2.75842200   
   258       C          0.74857700      3.25907800     21.30917100   
   259       C         17.30392300     20.81332900     14.79342200   
   260       C          2.75842200     18.80107700      3.25667100   
   261       C         12.78357700      8.77592200      2.76082900   
   262       C          9.27657800      5.26892300     15.29167100   
   263       C         23.32142300     15.29407800     14.79582900   
   264       C         21.30917100      0.74857700      3.25907800   
   265       C         15.29407800     14.79582900     23.32142300   
   266       C         14.79582900     23.32142300     15.29407800   
   267       C         11.28642300     20.81092200      9.27417100   
   268       C         21.31157800      6.76607700      8.77832900   
   269       C          6.76607700      8.77832900     21.31157800   
   270       C         15.29167100      9.27657800      5.26892300   
   271       C          5.26892300     15.29167100      9.27657800   
   272       C         20.81092200      9.27417100     11.28642300   
   273       C          9.27417100     11.28642300     20.81092200   
   274       C          8.77592200      2.76082900     12.78357700   
   275       C          3.25907800     21.30917100      0.74857700   
   276       C          8.77832900     21.31157800      6.76607700   
   277       C          3.43478900     14.61049000     10.86279100   
   278       C          2.57549000      1.17220900     20.63521100   
   279       C         14.61049000     10.86279100      3.43478900   
   280       C         21.49451000     13.20720900     15.46978900   
   281       C         20.63521100      2.57549000      1.17220900   
   282       C         13.20720900     15.46978900     21.49451000   
   283       C         15.46978900     21.49451000     13.20720900   
   284       C          9.45951000     22.89779100      8.60021100   
   285       C         22.89779100      8.60021100      9.45951000   
   286       C          8.60021100      9.45951000     22.89779100   
   287       C         10.86279100      3.43478900     14.61049000   
   288       C          1.17220900     20.63521100      2.57549000   
   289       H         13.45031600     21.59801100     17.55184400   
   290       H          6.51815600      1.41531600     14.50698900   
   291       H         23.56934400      8.48948900      7.43281600   
   292       H         17.55184400     13.45031600     21.59801100   
   293       H         14.50698900      6.51815600      1.41531600   
   294       H         20.52448900      4.60218400      0.50065600   
   295       H         21.59801100     17.55184400     13.45031600   
   296       H          1.41531600     14.50698900      6.51815600   
   297       H          8.48948900      7.43281600     23.56934400   
   298       H         10.61968400      9.56301100     18.55315600   
   299       H          3.54551100     16.63718400     11.53434400   
   300       H          0.50065600     20.52448900      4.60218400   
   301       H         16.63718400     11.53434400      3.54551100   
   302       H         11.53434400      3.54551100     16.63718400   
   303       H         15.58051100     19.46781600     12.53565600   
   304       H         22.65468400      2.47198900      5.51684400   
   305       H          2.47198900      5.51684400     22.65468400   
   306       H         18.55315600     10.61968400      9.56301100   
   307       H          9.56301100     18.55315600     10.61968400   
   308       H         19.46781600     12.53565600     15.58051100   
   309       H         12.53565600     15.58051100     19.46781600   
   310       H          7.43281600     23.56934400      8.48948900   
   311       H          4.60218400      0.50065600     20.52448900   
   312       H          5.51684400     22.65468400      2.47198900   
   313       H         13.74878400     20.12733400     19.49910700   
   314       H          4.57089300      1.71378400     15.97766600   
   315       H          1.44660700      9.96016600      7.73128400   
   316       H         19.49910700     13.74878400     20.12733400   
   317       H         15.97766600      4.57089300      1.71378400   
   318       H         21.99516600      4.30371600     22.62339300   
   319       H         20.12733400     19.49910700     13.74878400   
   320       H          1.71378400     15.97766600      4.57089300   
   321       H          9.96016600      7.73128400      1.44660700   
   322       H         10.32121600      8.09233400     16.60589300   
   323       H          2.07483400     16.33871600     13.48160700   
   324       H         22.62339300     21.99516600      4.30371600   
   325       H         16.33871600     13.48160700      2.07483400   
   326       H         13.48160700      2.07483400     16.33871600   
   327       H         14.10983400     19.76628400     10.58839300   
   328       H         22.35621600      3.94266600      7.46410700   
   329       H          3.94266600      7.46410700     22.35621600   
   330       H         16.60589300     10.32121600      8.09233400   
   331       H          8.09233400     16.60589300     10.32121600   
   332       H         19.76628400     10.58839300     14.10983400   
   333       H         10.58839300     14.10983400     19.76628400   
   334       H          7.73128400      1.44660700      9.96016600   
   335       H          4.30371600     22.62339300     21.99516600   
   336       H          7.46410700     22.35621600      3.94266600   
   337       H         14.00392600     17.89845200     20.33674300   
   338       H          3.73325700      1.96892600     18.20654800   
   339       H          2.28424300     12.18904800      7.98642600   
   340       H         20.33674300     14.00392600     17.89845200   
   341       H         18.20654800      3.73325700      1.96892600   
   342       H          0.15404800      4.04857400     21.78575700   
   343       H         17.89845200     20.33674300     14.00392600   
   344       H          1.96892600     18.20654800      3.73325700   
   345       H         12.18904800      7.98642600      2.28424300   
   346       H         10.06607400      5.86345200     15.76825700   
   347       H         23.91595200     16.08357400     14.31924300   
   348       H         21.78575700      0.15404800      4.04857400   
   349       H         16.08357400     14.31924300     23.91595200   
   350       H         14.31924300     23.91595200     16.08357400   
   351       H         11.88095200     20.02142600      9.75075700   
   352       H         22.10107400      6.17154800      8.30174300   
   353       H          6.17154800      8.30174300     22.10107400   
   354       H         15.76825700     10.06607400      5.86345200   
   355       H          5.86345200     15.76825700     10.06607400   
   356       H         20.02142600      9.75075700     11.88095200   
   357       H          9.75075700     11.88095200     20.02142600   
   358       H          7.98642600      2.28424300     12.18904800   
   359       H          4.04857400     21.78575700      0.15404800   
   360       H          8.30174300     22.10107400      6.17154800   
   361      Tv         24.07000000      0.00000000      0.00000000   
   362      Tv          0.00000000     24.07000000      0.00000000   
   363      Tv          0.00000000      0.00000000     24.07000000   


                   THE SYSTEM IS A SOLID


                UNIT CELL TRANSLATION VECTORS

              X                Y              Z
    T1 =    24.0700000      0.0000000      0.0000000
    T2 =     0.0000000     24.0700000      0.0000000
    T3 =     0.0000000      0.0000000     24.0700000


          CARTESIAN COORDINATES 

    NO.       ATOM           X           Y           Z

     1         N         16.5481     19.0201     20.1899
     2         N          3.8801      4.5131     17.0849
     3         N         20.1899     16.5481     19.0201
     4         N         17.0849      3.8801      4.5131
     5         N         19.0201     20.1899     16.5481
     6         N          4.5131     17.0849      3.8801
     7         N          7.5219      6.9851     15.9151
     8         N         19.5569      5.0499      8.1549
     9         N          5.0499      8.1549     19.5569
    10         N         15.9151      7.5219      6.9851
    11         N          6.9851     15.9151      7.5219
    12         N          8.1549     19.5569      5.0499
    13         N         16.8803     15.4770     21.4873
    14         N          2.5827      4.8453     20.6280
    15         N         21.4873     16.8803     15.4770
    16         N         20.6280      2.5827      4.8453
    17         N         15.4770     21.4873     16.8803
    18         N          4.8453     20.6280      2.5827
    19         N          7.1897      3.4420     14.6177
    20         N         19.2247      8.5930      9.4523
    21         N          8.5930      9.4523     19.2247
    22         N         14.6177      7.1897      3.4420
    23         N          3.4420     14.6177      7.1897
    24         N          9.4523     19.2247      8.5930
    25         C         17.7661     14.4613     21.2297
    26         C          2.8403      5.7311     21.6437
    27         C          3.1772     15.6262     11.7486
    28         C         21.2297     17.7661     14.4613
    29         C         21.6437      2.8403      5.7311
    30         C          3.5912      0.2864     20.8928
    31         C         14.4613     21.2297     17.7661
    32         C          5.7311     21.6437      2.8403
    33         C         15.6262     11.7486      3.1772
    34         C          6.3039      2.4263     14.8753
    35         C         20.4788     12.3214     15.2122
    36         C         20.8928      3.5912      0.2864
    37         C         12.3214     15.2122     20.4788
    38         C         15.2122     20.4788     12.3214
    39         C          8.4438     23.7836      8.8578
    40         C         18.3389      9.6087      9.1947
    41         C          9.6087      9.1947     18.3389
    42         C         14.8753      6.3039      2.4263
    43         C          2.4263     14.8753      6.3039
    44         C         23.7836      8.8578      8.4438
    45         C          8.8578      8.4438     23.7836
    46         C         11.7486      3.1772     15.6262
    47         C          0.2864     20.8928      3.5912
    48         C          9.1947     18.3389      9.6087
    49         C         18.9407     14.6370     20.4210
    50         C          3.6490      6.9057     21.4680
    51         C          2.3685     15.4505     12.9232
    52         C         20.4210     18.9407     14.6370
    53         C         21.4680      3.6490      6.9057
    54         C          3.4155     23.1818     21.7015
    55         C         14.6370     20.4210     18.9407
    56         C          6.9057     21.4680      3.6490
    57         C         15.4505     12.9232      2.3685
    58         C          5.1293      2.6020     15.6840
    59         C         20.6545     11.1468     14.4035
    60         C         21.7015      3.4155     23.1818
    61         C         11.1468     14.4035     20.6545
    62         C         14.4035     20.6545     11.1468
    63         C          8.6195      0.8882      9.6665
    64         C         17.1643      9.4330      8.3860
    65         C          9.4330      8.3860     17.1643
    66         C         15.6840      5.1293      2.6020
    67         C          2.6020     15.6840      5.1293
    68         C          0.8882      9.6665      8.6195
    69         C          9.6665      8.6195      0.8882
    70         C         12.9232      2.3685     15.4505
    71         C         23.1818     21.7015      3.4155
    72         C          8.3860     17.1643      9.4330
    73         C         15.5588     15.3831     22.1420
    74         C          1.9280      3.5238     20.7219
    75         C          4.0895     14.7044      9.5413
    76         C         22.1420     15.5588     15.3831
    77         C         20.7219      1.9280      3.5238
    78         C          2.6694      2.4937     19.9805
    79         C         15.3831     22.1420     15.5588
    80         C          3.5238     20.7219      1.9280
    81         C         14.7044      9.5413      4.0895
    82         C          8.5112      3.3481     13.9630
    83         C         21.4006     14.5287     16.1245
    84         C         19.9805      2.6694      2.4937
    85         C         14.5287     16.1245     21.4006
    86         C         16.1245     21.4006     14.5287
    87         C          9.3656     21.5763      7.9455
    88         C         20.5462      8.6869     10.1070
    89         C          8.6869     10.1070     20.5462
    90         C         13.9630      8.5112      3.3481
    91         C          3.3481     13.9630      8.5112
    92         C         21.5763      7.9455      9.3656
    93         C          7.9455      9.3656     21.5763
    94         C          9.5413      4.0895     14.7044
    95         C          2.4937     19.9805      2.6694
    96         C         10.1070     20.5462      8.6869
    97         C         19.2175     19.9805     17.9851
    98         C          6.0849      7.1825     16.1245
    99         C         24.0026     10.1070     13.2000
   100         C         17.9851     19.2175     19.9805
   101         C         16.1245      6.0849      7.1825
   102         C         22.1420     22.9050      0.0674
   103         C         19.9805     17.9851     19.2175
   104         C          7.1825     16.1245      6.0849
   105         C         10.1070     13.2000     24.0026
   106         C          4.8525      7.9455     18.1199
   107         C          1.9280     10.8700     11.9676
   108         C          0.0674     22.1420     22.9050
   109         C         10.8700     11.9676      1.9280
   110         C         11.9676      1.9280     10.8700
   111         C         13.9630      1.1650     12.1024
   112         C         16.8875      4.0895      5.9501
   113         C          4.0895      5.9501     16.8875
   114         C         18.1199      4.8525      7.9455
   115         C          7.9455     18.1199      4.8525
   116         C          1.1650     12.1024     13.9630
   117         C         12.1024     13.9630      1.1650
   118         C         13.2000     24.0026     10.1070
   119         C         22.9050      0.0674     22.1420
   120         C          5.9501     16.8875      4.0895
   121         C         18.4569     16.9453     20.5630
   122         C          3.5070      6.4219     19.1597
   123         C          2.5105     13.1422     12.4394
   124         C         20.5630     18.4569     16.9453
   125         C         19.1597      3.5070      6.4219
   126         C          1.1072     23.6656     21.5595
   127         C         16.9453     20.5630     18.4569
   128         C          6.4219     19.1597      3.5070
   129         C         13.1422     12.4394      2.5105
   130         C          5.6131      4.9103     15.5420
   131         C         22.9628     11.6306     14.5455
   132         C         21.5595      1.1072     23.6656
   133         C         11.6306     14.5455     22.9628
   134         C         14.5455     22.9628     11.6306
   135         C         10.9278      0.4044      9.5245
   136         C         17.6481      7.1247      8.5280
   137         C          7.1247      8.5280     17.6481
   138         C         15.5420      5.6131      4.9103
   139         C          4.9103     15.5420      5.6131
   140         C          0.4044      9.5245     10.9278
   141         C          9.5245     10.9278      0.4044
   142         C         12.4394      2.5105     13.1422
   143         C         23.6656     21.5595      1.1072
   144         C          8.5280     17.6481      7.1247
   145         C          2.1374     11.0674     10.5306
   146         C         23.1024      1.5044     21.9326
   147         C         11.0674     10.5306      2.1374
   148         C          0.9676     13.5394     14.1724
   149         C         21.9326     23.1024      1.5044
   150         C         13.5394     14.1724      0.9676
   151         C         14.1724      0.9676     13.5394
   152         C         13.0026     22.5656      9.8976
   153         C         22.5656      9.8976     13.0026
   154         C          9.8976     13.0026     22.5656
   155         C         10.5306      2.1374     11.0674
   156         C          1.5044     21.9326     23.1024
   157         C         23.2251     21.9904     23.9087
   158         C          0.1613     11.1901     14.1146
   159         C          5.8562      8.0971     17.2076
   160         C         23.9087     23.2251     21.9904
   161         C         14.1146      0.1613     11.1901
   162         C         20.1321     18.8974     18.2138
   163         C         21.9904     23.9087     23.2251
   164         C         11.1901     14.1146      0.1613
   165         C          8.0971     17.2076      5.8562
   166         C          0.8449      9.9554     12.1963
   167         C          3.9379      6.8624     17.8912
   168         C         18.2138     20.1321     18.8974
   169         C          6.8624     17.8912      3.9379
   170         C         17.8912      3.9379      6.8624
   171         C         15.9729      5.1726      6.1788
   172         C         12.8799      2.0796     11.8737
   173         C          2.0796     11.8737     12.8799
   174         C         12.1963      0.8449      9.9554
   175         C          9.9554     12.1963      0.8449
   176         C          5.1726      6.1788     15.9729
   177         C          6.1788     15.9729      5.1726
   178         C         17.2076      5.8562      8.0971
   179         C         18.8974     18.2138     20.1321
   180         C         11.8737     12.8799      2.0796
   181         C         17.1667     16.7912     21.0083
   182         C          3.0617      5.1317     19.3138
   183         C          2.9558     13.2963     11.1492
   184         C         21.0083     17.1667     16.7912
   185         C         19.3138      3.0617      5.1317
   186         C          1.2613      0.8858     21.1142
   187         C         16.7912     21.0083     17.1667
   188         C          5.1317     19.3138      3.0617
   189         C         13.2963     11.1492      2.9558
   190         C          6.9033      4.7562     15.0967
   191         C         22.8087     12.9208     14.9908
   192         C         21.1142      1.2613      0.8858
   193         C         12.9208     14.9908     22.8087
   194         C         14.9908     22.8087     12.9208
   195         C         10.7737     23.1842      9.0792
   196         C         18.9383      7.2788      8.9733
   197         C          7.2788      8.9733     18.9383
   198         C         15.0967      6.9033      4.7562
   199         C          4.7562     15.0967      6.9033
   200         C         23.1842      9.0792     10.7737
   201         C          9.0792     10.7737     23.1842
   202         C         11.1492      2.9558     13.2963
   203         C          0.8858     21.1142      1.2613
   204         C          8.9733     18.9383      7.2788
   205         C         16.1630     17.8142     20.7291
   206         C          3.3409      4.1280     18.2908
   207         C          2.6766     12.2733     10.1455
   208         C         20.7291     16.1630     17.8142
   209         C         18.2908      3.3409      4.1280
   210         C          0.2383      1.8895     21.3934
   211         C         17.8142     20.7291     16.1630
   212         C          4.1280     18.2908      3.3409
   213         C         12.2733     10.1455      2.6766
   214         C          7.9070      5.7792     15.3759
   215         C         23.8317     13.9245     14.7116
   216         C         21.3934      0.2383      1.8895
   217         C         13.9245     14.7116     23.8317
   218         C         14.7116     23.8317     13.9245
   219         C         11.7967     22.1805      9.3584
   220         C         19.9420      6.2558      8.6941
   221         C          6.2558      8.6941     19.9420
   222         C         15.3759      7.9070      5.7792
   223         C          5.7792     15.3759      7.9070
   224         C         22.1805      9.3584     11.7967
   225         C          9.3584     11.7967     22.1805
   226         C         10.1455      2.6766     12.2733
   227         C          1.8895     21.3934      0.2383
   228         C          8.6941     19.9420      6.2558
   229         C         19.2993     15.8910     20.0335
   230         C          4.0365      7.2643     20.2140
   231         C          1.9810     14.1965     13.2818
   232         C         20.0335     19.2993     15.8910
   233         C         20.2140      4.0365      7.2643
   234         C          2.1615     22.8232     22.0890
   235         C         15.8910     20.0335     19.2993
   236         C          7.2643     20.2140      4.0365
   237         C         14.1965     13.2818      1.9810
   238         C          4.7707      3.8560     16.0715
   239         C         21.9085     10.7882     14.0160
   240         C         22.0890      2.1615     22.8232
   241         C         10.7882     14.0160     21.9085
   242         C         14.0160     21.9085     10.7882
   243         C          9.8735      1.2468     10.0540
   244         C         16.8057      8.1790      7.9985
   245         C          8.1790      7.9985     16.8057
   246         C         16.0715      4.7707      3.8560
   247         C          3.8560     16.0715      4.7707
   248         C          1.2468     10.0540      9.8735
   249         C         10.0540      9.8735      1.2468
   250         C         13.2818      1.9810     14.1965
   251         C         22.8232     22.0890      2.1615
   252         C          7.9985     16.8057      8.1790
   253         C         14.7934     17.3039     20.8133
   254         C          3.2567      2.7584     18.8011
   255         C          2.7608     12.7836      8.7759
   256         C         20.8133     14.7934     17.3039
   257         C         18.8011      3.2567      2.7584
   258         C          0.7486      3.2591     21.3092
   259         C         17.3039     20.8133     14.7934
   260         C          2.7584     18.8011      3.2567
   261         C         12.7836      8.7759      2.7608
   262         C          9.2766      5.2689     15.2917
   263         C         23.3214     15.2941     14.7958
   264         C         21.3092      0.7486      3.2591
   265         C         15.2941     14.7958     23.3214
   266         C         14.7958     23.3214     15.2941
   267         C         11.2864     20.8109      9.2742
   268         C         21.3116      6.7661      8.7783
   269         C          6.7661      8.7783     21.3116
   270         C         15.2917      9.2766      5.2689
   271         C          5.2689     15.2917      9.2766
   272         C         20.8109      9.2742     11.2864
   273         C          9.2742     11.2864     20.8109
   274         C          8.7759      2.7608     12.7836
   275         C          3.2591     21.3092      0.7486
   276         C          8.7783     21.3116      6.7661
   277         C          3.4348     14.6105     10.8628
   278         C          2.5755      1.1722     20.6352
   279         C         14.6105     10.8628      3.4348
   280         C         21.4945     13.2072     15.4698
   281         C         20.6352      2.5755      1.1722
   282         C         13.2072     15.4698     21.4945
   283         C         15.4698     21.4945     13.2072
   284         C          9.4595     22.8978      8.6002
   285         C         22.8978      8.6002      9.4595
   286         C          8.6002      9.4595     22.8978
   287         C         10.8628      3.4348     14.6105
   288         C          1.1722     20.6352      2.5755
   289         H         13.4503     21.5980     17.5518
   290         H          6.5182      1.4153     14.5070
   291         H         23.5693      8.4895      7.4328
   292         H         17.5518     13.4503     21.5980
   293         H         14.5070      6.5182      1.4153
   294         H         20.5245      4.6022      0.5007
   295         H         21.5980     17.5518     13.4503
   296         H          1.4153     14.5070      6.5182
   297         H          8.4895      7.4328     23.5693
   298         H         10.6197      9.5630     18.5532
   299         H          3.5455     16.6372     11.5343
   300         H          0.5007     20.5245      4.6022
   301         H         16.6372     11.5343      3.5455
   302         H         11.5343      3.5455     16.6372
   303         H         15.5805     19.4678     12.5357
   304         H         22.6547      2.4720      5.5168
   305         H          2.4720      5.5168     22.6547
   306         H         18.5532     10.6197      9.5630
   307         H          9.5630     18.5532     10.6197
   308         H         19.4678     12.5357     15.5805
   309         H         12.5357     15.5805     19.4678
   310         H          7.4328     23.5693      8.4895
   311         H          4.6022      0.5007     20.5245
   312         H          5.5168     22.6547      2.4720
   313         H         13.7488     20.1273     19.4991
   314         H          4.5709      1.7138     15.9777
   315         H          1.4466      9.9602      7.7313
   316         H         19.4991     13.7488     20.1273
   317         H         15.9777      4.5709      1.7138
   318         H         21.9952      4.3037     22.6234
   319         H         20.1273     19.4991     13.7488
   320         H          1.7138     15.9777      4.5709
   321         H          9.9602      7.7313      1.4466
   322         H         10.3212      8.0923     16.6059
   323         H          2.0748     16.3387     13.4816
   324         H         22.6234     21.9952      4.3037
   325         H         16.3387     13.4816      2.0748
   326         H         13.4816      2.0748     16.3387
   327         H         14.1098     19.7663     10.5884
   328         H         22.3562      3.9427      7.4641
   329         H          3.9427      7.4641     22.3562
   330         H         16.6059     10.3212      8.0923
   331         H          8.0923     16.6059     10.3212
   332         H         19.7663     10.5884     14.1098
   333         H         10.5884     14.1098     19.7663
   334         H          7.7313      1.4466      9.9602
   335         H          4.3037     22.6234     21.9952
   336         H          7.4641     22.3562      3.9427
   337         H         14.0039     17.8985     20.3367
   338         H          3.7333      1.9689     18.2065
   339         H          2.2842     12.1890      7.9864
   340         H         20.3367     14.0039     17.8985
   341         H         18.2065      3.7333      1.9689
   342         H          0.1540      4.0486     21.7858
   343         H         17.8985     20.3367     14.0039
   344         H          1.9689     18.2065      3.7333
   345         H         12.1890      7.9864      2.2842
   346         H         10.0661      5.8635     15.7683
   347         H         23.9160     16.0836     14.3192
   348         H         21.7858      0.1540      4.0486
   349         H         16.0836     14.3192     23.9160
   350         H         14.3192     23.9160     16.0836
   351         H         11.8810     20.0214      9.7508
   352         H         22.1011      6.1715      8.3017
   353         H          6.1715      8.3017     22.1011
   354         H         15.7683     10.0661      5.8635
   355         H          5.8635     15.7683     10.0661
   356         H         20.0214      9.7508     11.8810
   357         H          9.7508     11.8810     20.0214
   358         H          7.9864      2.2842     12.1890
   359         H          4.0486     21.7858      0.1540
   360         H          8.3017     22.1011      6.1715

 General Reference for PM7:
 "Optimization of Parameters for Semiempirical Methods VI: More Modifications to the 
 NDDO Approximations and Re-optimization of Parameters", J. J. P. Stewart, J. Mol. Mod., 1:32, 19 (2013)
 https://link.springer.com/article/10.1007/s00894-012-1667-x

           Empirical Formula: C264 H72 N24  =   360 atoms



      RHF CALCULATION, NO. OF DOUBLY OCCUPIED LEVELS = 624


 -------------------------------------------------------------------------------
 PM7 CHARGE=0 NOOPT




     NO PARAMETERS MARKED FOR OPTIMIZATION, SO 1SCF WAS USED  
     SCF FIELD WAS ACHIEVED                                   


                              PM7 CALCULATION
                                                       MOPAC v22.1.0 Linux
                                                       Wed Jan 31 12:36:00 2024




          FINAL HEAT OF FORMATION =       2979.09151 KCAL/MOL =   12464.51890 KJ/MOL
          H.o.F. per unit cell    =        124.12881 KCAL, for 24 unit cells, unit cell = C11 H3 N1



          IONIZATION POTENTIAL    =          7.036370 EV
          HOMO LUMO ENERGIES (EV) =         -7.036 -1.910
          NO. OF FILLED LEVELS    =        624
          MOLECULAR WEIGHT        =       3579.6336

                   THE SYSTEM IS A SOLID


                UNIT CELL TRANSLATION VECTORS

              X                Y              Z
    T1 =    24.0700000      0.0000000      0.0000000
    T2 =     0.0000000     24.0700000      0.0000000
    T3 =     0.0000000      0.0000000     24.0700000

          VOLUME OF UNIT CELL     =      13945.313 CUBIC ANGSTROMS

          DENSITY                 =          0.426 GRAMS/CC
                              A   =         24.070 ANGSTROMS
                              B   =         24.070 ANGSTROMS
                              C   =         24.070 ANGSTROMS
                            ALPHA =         90.000 DEGREES
                            BETA  =         90.000 DEGREES
                            GAMMA =         90.000 DEGREES



          SCF CALCULATIONS        =          1

          WALL-CLOCK TIME         =          2 MINUTES AND 24.832 SECONDS
          COMPUTATION TIME        =          2 MINUTES AND 24.781 SECONDS




   ATOM   CHEMICAL          X               Y               Z
  NUMBER   SYMBOL      (ANGSTROMS)     (ANGSTROMS)     (ANGSTROMS)

     1       N         16.54812500     19.02011400     20.18991600   
     2       N          3.88008400      4.51312500     17.08488600   
     3       N         20.18991600     16.54812500     19.02011400   
     4       N         17.08488600      3.88008400      4.51312500   
     5       N         19.02011400     20.18991600     16.54812500   
     6       N          4.51312500     17.08488600      3.88008400   
     7       N          7.52187500      6.98511400     15.91508400   
     8       N         19.55687500      5.04988600      8.15491600   
     9       N          5.04988600      8.15491600     19.55687500   
    10       N         15.91508400      7.52187500      6.98511400   
    11       N          6.98511400     15.91508400      7.52187500   
    12       N          8.15491600     19.55687500      5.04988600   
    13       N         16.88029100     15.47701000     21.48728900   
    14       N          2.58271100      4.84529100     20.62799000   
    15       N         21.48728900     16.88029100     15.47701000   
    16       N         20.62799000      2.58271100      4.84529100   
    17       N         15.47701000     21.48728900     16.88029100   
    18       N          4.84529100     20.62799000      2.58271100   
    19       N          7.18970900      3.44201000     14.61771100   
    20       N         19.22470900      8.59299000      9.45228900   
    21       N          8.59299000      9.45228900     19.22470900   
    22       N         14.61771100      7.18970900      3.44201000   
    23       N          3.44201000     14.61771100      7.18970900   
    24       N          9.45228900     19.22470900      8.59299000   
    25       C         17.76606700     14.46125600     21.22974000   
    26       C          2.84026000      5.73106700     21.64374400   
    27       C          3.17724000     15.62624400     11.74856700   
    28       C         21.22974000     17.76606700     14.46125600   
    29       C         21.64374400      2.84026000      5.73106700   
    30       C          3.59124400      0.28643300     20.89276000   
    31       C         14.46125600     21.22974000     17.76606700   
    32       C          5.73106700     21.64374400      2.84026000   
    33       C         15.62624400     11.74856700      3.17724000   
    34       C          6.30393300      2.42625600     14.87526000   
    35       C         20.47875600     12.32143300     15.21224000   
    36       C         20.89276000      3.59124400      0.28643300   
    37       C         12.32143300     15.21224000     20.47875600   
    38       C         15.21224000     20.47875600     12.32143300   
    39       C          8.44375600     23.78356700      8.85776000   
    40       C         18.33893300      9.60874400      9.19474000   
    41       C          9.60874400      9.19474000     18.33893300   
    42       C         14.87526000      6.30393300      2.42625600   
    43       C          2.42625600     14.87526000      6.30393300   
    44       C         23.78356700      8.85776000      8.44375600   
    45       C          8.85776000      8.44375600     23.78356700   
    46       C         11.74856700      3.17724000     15.62624400   
    47       C          0.28643300     20.89276000      3.59124400   
    48       C          9.19474000     18.33893300      9.60874400   
    49       C         18.94068300     14.63696700     20.42098800   
    50       C          3.64901200      6.90568300     21.46803300   
    51       C          2.36848800     15.45053300     12.92318300   
    52       C         20.42098800     18.94068300     14.63696700   
    53       C         21.46803300      3.64901200      6.90568300   
    54       C          3.41553300     23.18181700     21.70151200   
    55       C         14.63696700     20.42098800     18.94068300   
    56       C          6.90568300     21.46803300      3.64901200   
    57       C         15.45053300     12.92318300      2.36848800   
    58       C          5.12931700      2.60196700     15.68401200   
    59       C         20.65446700     11.14681700     14.40348800   
    60       C         21.70151200      3.41553300     23.18181700   
    61       C         11.14681700     14.40348800     20.65446700   
    62       C         14.40348800     20.65446700     11.14681700   
    63       C          8.61946700      0.88818300      9.66651200   
    64       C         17.16431700      9.43303300      8.38598800   
    65       C          9.43303300      8.38598800     17.16431700   
    66       C         15.68401200      5.12931700      2.60196700   
    67       C          2.60196700     15.68401200      5.12931700   
    68       C          0.88818300      9.66651200      8.61946700   
    69       C          9.66651200      8.61946700      0.88818300   
    70       C         12.92318300      2.36848800     15.45053300   
    71       C         23.18181700     21.70151200      3.41553300   
    72       C          8.38598800     17.16431700      9.43303300   
    73       C         15.55884800     15.38313700     22.14199300   
    74       C          1.92800700      3.52384800     20.72186300   
    75       C          4.08949300     14.70436300      9.54134800   
    76       C         22.14199300     15.55884800     15.38313700   
    77       C         20.72186300      1.92800700      3.52384800   
    78       C          2.66936300      2.49365200     19.98050700   
    79       C         15.38313700     22.14199300     15.55884800   
    80       C          3.52384800     20.72186300      1.92800700   
    81       C         14.70436300      9.54134800      4.08949300   
    82       C          8.51115200      3.34813700     13.96300700   
    83       C         21.40063700     14.52865200     16.12449300   
    84       C         19.98050700      2.66936300      2.49365200   
    85       C         14.52865200     16.12449300     21.40063700   
    86       C         16.12449300     21.40063700     14.52865200   
    87       C          9.36563700     21.57634800      7.94550700   
    88       C         20.54615200      8.68686300     10.10699300   
    89       C          8.68686300     10.10699300     20.54615200   
    90       C         13.96300700      8.51115200      3.34813700   
    91       C          3.34813700     13.96300700      8.51115200   
    92       C         21.57634800      7.94550700      9.36563700   
    93       C          7.94550700      9.36563700     21.57634800   
    94       C          9.54134800      4.08949300     14.70436300   
    95       C          2.49365200     19.98050700      2.66936300   
    96       C         10.10699300     20.54615200      8.68686300   
    97       C         19.21748800     19.98050700     17.98510400   
    98       C          6.08489600      7.18248800     16.12449300   
    99       C         24.00260400     10.10699300     13.19998800   
   100       C         17.98510400     19.21748800     19.98050700   
   101       C         16.12449300      6.08489600      7.18248800   
   102       C         22.14199300     22.90501200      0.06739600   
   103       C         19.98050700     17.98510400     19.21748800   
   104       C          7.18248800     16.12449300      6.08489600   
   105       C         10.10699300     13.19998800     24.00260400   
   106       C          4.85251200      7.94550700     18.11989600   
   107       C          1.92800700     10.87001200     11.96760400   
   108       C          0.06739600     22.14199300     22.90501200   
   109       C         10.87001200     11.96760400      1.92800700   
   110       C         11.96760400      1.92800700     10.87001200   
   111       C         13.96300700      1.16498800     12.10239600   
   112       C         16.88751200      4.08949300      5.95010400   
   113       C          4.08949300      5.95010400     16.88751200   
   114       C         18.11989600      4.85251200      7.94550700   
   115       C          7.94550700     18.11989600      4.85251200   
   116       C          1.16498800     12.10239600     13.96300700   
   117       C         12.10239600     13.96300700      1.16498800   
   118       C         13.19998800     24.00260400     10.10699300   
   119       C         22.90501200      0.06739600     22.14199300   
   120       C          5.95010400     16.88751200      4.08949300   
   121       C         18.45687600     16.94528000     20.56300100   
   122       C          3.50699900      6.42187600     19.15972000   
   123       C          2.51050100     13.14222000     12.43937600   
   124       C         20.56300100     18.45687600     16.94528000   
   125       C         19.15972000      3.50699900      6.42187600   
   126       C          1.10722000     23.66562400     21.55949900   
   127       C         16.94528000     20.56300100     18.45687600   
   128       C          6.42187600     19.15972000      3.50699900   
   129       C         13.14222000     12.43937600      2.51050100   
   130       C          5.61312400      4.91028000     15.54199900   
   131       C         22.96278000     11.63062400     14.54550100   
   132       C         21.55949900      1.10722000     23.66562400   
   133       C         11.63062400     14.54550100     22.96278000   
   134       C         14.54550100     22.96278000     11.63062400   
   135       C         10.92778000      0.40437600      9.52449900   
   136       C         17.64812400      7.12472000      8.52800100   
   137       C          7.12472000      8.52800100     17.64812400   
   138       C         15.54199900      5.61312400      4.91028000   
   139       C          4.91028000     15.54199900      5.61312400   
   140       C          0.40437600      9.52449900     10.92778000   
   141       C          9.52449900     10.92778000      0.40437600   
   142       C         12.43937600      2.51050100     13.14222000   
   143       C         23.66562400     21.55949900      1.10722000   
   144       C          8.52800100     17.64812400      7.12472000   
   145       C          2.13741600     11.06738600     10.53062500   
   146       C         23.10238600      1.50437500     21.93258400   
   147       C         11.06738600     10.53062500      2.13741600   
   148       C          0.96761400     13.53937500     14.17241600   
   149       C         21.93258400     23.10238600      1.50437500   
   150       C         13.53937500     14.17241600      0.96761400   
   151       C         14.17241600      0.96761400     13.53937500   
   152       C         13.00261400     22.56562500      9.89758400   
   153       C         22.56562500      9.89758400     13.00261400   
   154       C          9.89758400     13.00261400     22.56562500   
   155       C         10.53062500      2.13741600     11.06738600   
   156       C          1.50437500     21.93258400     23.10238600   
   157       C         23.22514300     21.99035200     23.90873100   
   158       C          0.16126900     11.19014300     14.11464800   
   159       C          5.85623100      8.09714800     17.20764300   
   160       C         23.90873100     23.22514300     21.99035200   
   161       C         14.11464800      0.16126900     11.19014300   
   162       C         20.13214800     18.89735700     18.21376900   
   163       C         21.99035200     23.90873100     23.22514300   
   164       C         11.19014300     14.11464800      0.16126900   
   165       C          8.09714800     17.20764300      5.85623100   
   166       C          0.84485700      9.95535200     12.19626900   
   167       C          3.93785200      6.86235700     17.89123100   
   168       C         18.21376900     20.13214800     18.89735700   
   169       C          6.86235700     17.89123100      3.93785200   
   170       C         17.89123100      3.93785200      6.86235700   
   171       C         15.97285200      5.17264300      6.17876900   
   172       C         12.87985700      2.07964800     11.87373100   
   173       C          2.07964800     11.87373100     12.87985700   
   174       C         12.19626900      0.84485700      9.95535200   
   175       C          9.95535200     12.19626900      0.84485700   
   176       C          5.17264300      6.17876900     15.97285200   
   177       C          6.17876900     15.97285200      5.17264300   
   178       C         17.20764300      5.85623100      8.09714800   
   179       C         18.89735700     18.21376900     20.13214800   
   180       C         11.87373100     12.87985700      2.07964800   
   181       C         17.16672400     16.79123200     21.00829600   
   182       C          3.06170400      5.13172400     19.31376800   
   183       C          2.95579600     13.29626800     11.14922400   
   184       C         21.00829600     17.16672400     16.79123200   
   185       C         19.31376800      3.06170400      5.13172400   
   186       C          1.26126800      0.88577600     21.11420400   
   187       C         16.79123200     21.00829600     17.16672400   
   188       C          5.13172400     19.31376800      3.06170400   
   189       C         13.29626800     11.14922400      2.95579600   
   190       C          6.90327600      4.75623200     15.09670400   
   191       C         22.80873200     12.92077600     14.99079600   
   192       C         21.11420400      1.26126800      0.88577600   
   193       C         12.92077600     14.99079600     22.80873200   
   194       C         14.99079600     22.80873200     12.92077600   
   195       C         10.77373200     23.18422400      9.07920400   
   196       C         18.93827600      7.27876800      8.97329600   
   197       C          7.27876800      8.97329600     18.93827600   
   198       C         15.09670400      6.90327600      4.75623200   
   199       C          4.75623200     15.09670400      6.90327600   
   200       C         23.18422400      9.07920400     10.77373200   
   201       C          9.07920400     10.77373200     23.18422400   
   202       C         11.14922400      2.95579600     13.29626800   
   203       C          0.88577600     21.11420400      1.26126800   
   204       C          8.97329600     18.93827600      7.27876800   
   205       C         16.16300500     17.81420700     20.72908400   
   206       C          3.34091600      4.12800500     18.29079300   
   207       C          2.67658400     12.27329300     10.14550500   
   208       C         20.72908400     16.16300500     17.81420700   
   209       C         18.29079300      3.34091600      4.12800500   
   210       C          0.23829300      1.88949500     21.39341600   
   211       C         17.81420700     20.72908400     16.16300500   
   212       C          4.12800500     18.29079300      3.34091600   
   213       C         12.27329300     10.14550500      2.67658400   
   214       C          7.90699500      5.77920700     15.37591600   
   215       C         23.83170700     13.92449500     14.71158400   
   216       C         21.39341600      0.23829300      1.88949500   
   217       C         13.92449500     14.71158400     23.83170700   
   218       C         14.71158400     23.83170700     13.92449500   
   219       C         11.79670700     22.18050500      9.35841600   
   220       C         19.94199500      6.25579300      8.69408400   
   221       C          6.25579300      8.69408400     19.94199500   
   222       C         15.37591600      7.90699500      5.77920700   
   223       C          5.77920700     15.37591600      7.90699500   
   224       C         22.18050500      9.35841600     11.79670700   
   225       C          9.35841600     11.79670700     22.18050500   
   226       C         10.14550500      2.67658400     12.27329300   
   227       C          1.88949500     21.39341600      0.23829300   
   228       C          8.69408400     19.94199500      6.25579300   
   229       C         19.29932600     15.89101400     20.03346100   
   230       C          4.03653900      7.26432600     20.21398600   
   231       C          1.98096100     14.19648600     13.28182600   
   232       C         20.03346100     19.29932600     15.89101400   
   233       C         20.21398600      4.03653900      7.26432600   
   234       C          2.16148600     22.82317400     22.08903900   
   235       C         15.89101400     20.03346100     19.29932600   
   236       C          7.26432600     20.21398600      4.03653900   
   237       C         14.19648600     13.28182600      1.98096100   
   238       C          4.77067400      3.85601400     16.07153900   
   239       C         21.90851400     10.78817400     14.01596100   
   240       C         22.08903900      2.16148600     22.82317400   
   241       C         10.78817400     14.01596100     21.90851400   
   242       C         14.01596100     21.90851400     10.78817400   
   243       C          9.87351400      1.24682600     10.05403900   
   244       C         16.80567400      8.17898600      7.99846100   
   245       C          8.17898600      7.99846100     16.80567400   
   246       C         16.07153900      4.77067400      3.85601400   
   247       C          3.85601400     16.07153900      4.77067400   
   248       C          1.24682600     10.05403900      9.87351400   
   249       C         10.05403900      9.87351400      1.24682600   
   250       C         13.28182600      1.98096100     14.19648600   
   251       C         22.82317400     22.08903900      2.16148600   
   252       C          7.99846100     16.80567400      8.17898600   
   253       C         14.79342200     17.30392300     20.81332900   
   254       C          3.25667100      2.75842200     18.80107700   
   255       C          2.76082900     12.78357700      8.77592200   
   256       C         20.81332900     14.79342200     17.30392300   
   257       C         18.80107700      3.25667100      2.75842200   
   258       C          0.74857700      3.25907800     21.30917100   
   259       C         17.30392300     20.81332900     14.79342200   
   260       C          2.75842200     18.80107700      3.25667100   
   261       C         12.78357700      8.77592200      2.76082900   
   262       C          9.27657800      5.26892300     15.29167100   
   263       C         23.32142300     15.29407800     14.79582900   
   264       C         21.30917100      0.74857700      3.25907800   
   265       C         15.29407800     14.79582900     23.32142300   
   266       C         14.79582900     23.32142300     15.29407800   
   267       C         11.28642300     20.81092200      9.27417100   
   268       C         21.31157800      6.76607700      8.77832900   
   269       C          6.76607700      8.77832900     21.31157800   
   270       C         15.29167100      9.27657800      5.26892300   
   271       C          5.26892300     15.29167100      9.27657800   
   272       C         20.81092200      9.27417100     11.28642300   
   273       C          9.27417100     11.28642300     20.81092200   
   274       C          8.77592200      2.76082900     12.78357700   
   275       C          3.25907800     21.30917100      0.74857700   
   276       C          8.77832900     21.31157800      6.76607700   
   277       C          3.43478900     14.61049000     10.86279100   
   278       C          2.57549000      1.17220900     20.63521100   
   279       C         14.61049000     10.86279100      3.43478900   
   280       C         21.49451000     13.20720900     15.46978900   
   281       C         20.63521100      2.57549000      1.17220900   
   282       C         13.20720900     15.46978900     21.49451000   
   283       C         15.46978900     21.49451000     13.20720900   
   284       C          9.45951000     22.89779100      8.60021100   
   285       C         22.89779100      8.60021100      9.45951000   
   286       C          8.60021100      9.45951000     22.89779100   
   287       C         10.86279100      3.43478900     14.61049000   
   288       C          1.17220900     20.63521100      2.57549000   
   289       H         13.45031600     21.59801100     17.55184400   
   290       H          6.51815600      1.41531600     14.50698900   
   291       H         23.56934400      8.48948900      7.43281600   
   292       H         17.55184400     13.45031600     21.59801100   
   293       H         14.50698900      6.51815600      1.41531600   
   294       H         20.52448900      4.60218400      0.50065600   
   295       H         21.59801100     17.55184400     13.45031600   
   296       H          1.41531600     14.50698900      6.51815600   
   297       H          8.48948900      7.43281600     23.56934400   
   298       H         10.61968400      9.56301100     18.55315600   
   299       H          3.54551100     16.63718400     11.53434400   
   300       H          0.50065600     20.52448900      4.60218400   
   301       H         16.63718400     11.53434400      3.54551100   
   302       H         11.53434400      3.54551100     16.63718400   
   303       H         15.58051100     19.46781600     12.53565600   
   304       H         22.65468400      2.47198900      5.51684400   
   305       H          2.47198900      5.51684400     22.65468400   
   306       H         18.55315600     10.61968400      9.56301100   
   307       H          9.56301100     18.55315600     10.61968400   
   308       H         19.46781600     12.53565600     15.58051100   
   309       H         12.53565600     15.58051100     19.46781600   
   310       H          7.43281600     23.56934400      8.48948900   
   311       H          4.60218400      0.50065600     20.52448900   
   312       H          5.51684400     22.65468400      2.47198900   
   313       H         13.74878400     20.12733400     19.49910700   
   314       H          4.57089300      1.71378400     15.97766600   
   315       H          1.44660700      9.96016600      7.73128400   
   316       H         19.49910700     13.74878400     20.12733400   
   317       H         15.97766600      4.57089300      1.71378400   
   318       H         21.99516600      4.30371600     22.62339300   
   319       H         20.12733400     19.49910700     13.74878400   
   320       H          1.71378400     15.97766600      4.57089300   
   321       H          9.96016600      7.73128400      1.44660700   
   322       H         10.32121600      8.09233400     16.60589300   
   323       H          2.07483400     16.33871600     13.48160700   
   324       H         22.62339300     21.99516600      4.30371600   
   325       H         16.33871600     13.48160700      2.07483400   
   326       H         13.48160700      2.07483400     16.33871600   
   327       H         14.10983400     19.76628400     10.58839300   
   328       H         22.35621600      3.94266600      7.46410700   
   329       H          3.94266600      7.46410700     22.35621600   
   330       H         16.60589300     10.32121600      8.09233400   
   331       H          8.09233400     16.60589300     10.32121600   
   332       H         19.76628400     10.58839300     14.10983400   
   333       H         10.58839300     14.10983400     19.76628400   
   334       H          7.73128400      1.44660700      9.96016600   
   335       H          4.30371600     22.62339300     21.99516600   
   336       H          7.46410700     22.35621600      3.94266600   
   337       H         14.00392600     17.89845200     20.33674300   
   338       H          3.73325700      1.96892600     18.20654800   
   339       H          2.28424300     12.18904800      7.98642600   
   340       H         20.33674300     14.00392600     17.89845200   
   341       H         18.20654800      3.73325700      1.96892600   
   342       H          0.15404800      4.04857400     21.78575700   
   343       H         17.89845200     20.33674300     14.00392600   
   344       H          1.96892600     18.20654800      3.73325700   
   345       H         12.18904800      7.98642600      2.28424300   
   346       H         10.06607400      5.86345200     15.76825700   
   347       H         23.91595200     16.08357400     14.31924300   
   348       H         21.78575700      0.15404800      4.04857400   
   349       H         16.08357400     14.31924300     23.91595200   
   350       H         14.31924300     23.91595200     16.08357400   
   351       H         11.88095200     20.02142600      9.75075700   
   352       H         22.10107400      6.17154800      8.30174300   
   353       H          6.17154800      8.30174300     22.10107400   
   354       H         15.76825700     10.06607400      5.86345200   
   355       H          5.86345200     15.76825700     10.06607400   
   356       H         20.02142600      9.75075700     11.88095200   
   357       H          9.75075700     11.88095200     20.02142600   
   358       H          7.98642600      2.28424300     12.18904800   
   359       H          4.04857400     21.78575700      0.15404800   
   360       H          8.30174300     22.10107400      6.17154800   
   361      Tv         24.07000000      0.00000000      0.00000000   
   362      Tv          0.00000000     24.07000000      0.00000000   
   363      Tv          0.00000000      0.00000000     24.07000000   

                             CARTESIAN COORDINATES

   1    N       16.548125000    19.020114000    20.189916000
   2    N        3.880084000     4.513125000    17.084886000
   3    N       20.189916000    16.548125000    19.020114000
   4    N       17.084886000     3.880084000     4.513125000
   5    N       19.020114000    20.189916000    16.548125000
   6    N        4.513125000    17.084886000     3.880084000
   7    N        7.521875000     6.985114000    15.915084000
   8    N       19.556875000     5.049886000     8.154916000
   9    N        5.049886000     8.154916000    19.556875000
  10    N       15.915084000     7.521875000     6.985114000
  11    N        6.985114000    15.915084000     7.521875000
  12    N        8.154916000    19.556875000     5.049886000
  13    N       16.880291000    15.477010000    21.487289000
  14    N        2.582711000     4.845291000    20.627990000
  15    N       21.487289000    16.880291000    15.477010000
  16    N       20.627990000     2.582711000     4.845291000
  17    N       15.477010000    21.487289000    16.880291000
  18    N        4.845291000    20.627990000     2.582711000
  19    N        7.189709000     3.442010000    14.617711000
  20    N       19.224709000     8.592990000     9.452289000
  21    N        8.592990000     9.452289000    19.224709000
  22    N       14.617711000     7.189709000     3.442010000
  23    N        3.442010000    14.617711000     7.189709000
  24    N        9.452289000    19.224709000     8.592990000
  25    C       17.766067000    14.461256000    21.229740000
  26    C        2.840260000     5.731067000    21.643744000
  27    C        3.177240000    15.626244000    11.748567000
  28    C       21.229740000    17.766067000    14.461256000
  29    C       21.643744000     2.840260000     5.731067000
  30    C        3.591244000     0.286433000    20.892760000
  31    C       14.461256000    21.229740000    17.766067000
  32    C        5.731067000    21.643744000     2.840260000
  33    C       15.626244000    11.748567000     3.177240000
  34    C        6.303933000     2.426256000    14.875260000
  35    C       20.478756000    12.321433000    15.212240000
  36    C       20.892760000     3.591244000     0.286433000
  37    C       12.321433000    15.212240000    20.478756000
  38    C       15.212240000    20.478756000    12.321433000
  39    C        8.443756000    23.783567000     8.857760000
  40    C       18.338933000     9.608744000     9.194740000
  41    C        9.608744000     9.194740000    18.338933000
  42    C       14.875260000     6.303933000     2.426256000
  43    C        2.426256000    14.875260000     6.303933000
  44    C       23.783567000     8.857760000     8.443756000
  45    C        8.857760000     8.443756000    23.783567000
  46    C       11.748567000     3.177240000    15.626244000
  47    C        0.286433000    20.892760000     3.591244000
  48    C        9.194740000    18.338933000     9.608744000
  49    C       18.940683000    14.636967000    20.420988000
  50    C        3.649012000     6.905683000    21.468033000
  51    C        2.368488000    15.450533000    12.923183000
  52    C       20.420988000    18.940683000    14.636967000
  53    C       21.468033000     3.649012000     6.905683000
  54    C        3.415533000    23.181817000    21.701512000
  55    C       14.636967000    20.420988000    18.940683000
  56    C        6.905683000    21.468033000     3.649012000
  57    C       15.450533000    12.923183000     2.368488000
  58    C        5.129317000     2.601967000    15.684012000
  59    C       20.654467000    11.146817000    14.403488000
  60    C       21.701512000     3.415533000    23.181817000
  61    C       11.146817000    14.403488000    20.654467000
  62    C       14.403488000    20.654467000    11.146817000
  63    C        8.619467000     0.888183000     9.666512000
  64    C       17.164317000     9.433033000     8.385988000
  65    C        9.433033000     8.385988000    17.164317000
  66    C       15.684012000     5.129317000     2.601967000
  67    C        2.601967000    15.684012000     5.129317000
  68    C        0.888183000     9.666512000     8.619467000
  69    C        9.666512000     8.619467000     0.888183000
  70    C       12.923183000     2.368488000    15.450533000
  71    C       23.181817000    21.701512000     3.415533000
  72    C        8.385988000    17.164317000     9.433033000
  73    C       15.558848000    15.383137000    22.141993000
[...]
  293          H           0.178811        0.8212     0.82119
  294          H           0.156638        0.8434     0.84336
  295          H           0.178811        0.8212     0.82119
  296          H           0.178811        0.8212     0.82119
  297          H           0.156638        0.8434     0.84336
  298          H           0.178811        0.8212     0.82119
  299          H           0.156638        0.8434     0.84336
  300          H           0.156638        0.8434     0.84336
  301          H           0.156638        0.8434     0.84336
  302          H           0.156638        0.8434     0.84336
  303          H           0.156638        0.8434     0.84336
  304          H           0.178811        0.8212     0.82119
  305          H           0.178811        0.8212     0.82119
  306          H           0.178811        0.8212     0.82119
  307          H           0.178811        0.8212     0.82119
  308          H           0.156638        0.8434     0.84336
  309          H           0.156638        0.8434     0.84336
  310          H           0.156638        0.8434     0.84336
  311          H           0.156638        0.8434     0.84336
  312          H           0.178811        0.8212     0.82119
  313          H           0.183092        0.8169     0.81691
  314          H           0.183092        0.8169     0.81691
  315          H           0.155542        0.8445     0.84446
  316          H           0.183092        0.8169     0.81691
  317          H           0.183092        0.8169     0.81691
  318          H           0.155542        0.8445     0.84446
  319          H           0.183092        0.8169     0.81691
  320          H           0.183092        0.8169     0.81691
  321          H           0.155542        0.8445     0.84446
  322          H           0.183092        0.8169     0.81691
  323          H           0.155542        0.8445     0.84446
  324          H           0.155542        0.8445     0.84446
  325          H           0.155542        0.8445     0.84446
  326          H           0.155542        0.8445     0.84446
  327          H           0.155542        0.8445     0.84446
  328          H           0.183092        0.8169     0.81691
  329          H           0.183092        0.8169     0.81691
  330          H           0.183092        0.8169     0.81691
  331          H           0.183092        0.8169     0.81691
  332          H           0.155542        0.8445     0.84446
  333          H           0.155542        0.8445     0.84446
  334          H           0.155542        0.8445     0.84446
  335          H           0.155542        0.8445     0.84446
  336          H           0.183092        0.8169     0.81691
  337          H           0.167255        0.8327     0.83275
  338          H           0.167255        0.8327     0.83275
  339          H           0.175136        0.8249     0.82486
  340          H           0.167255        0.8327     0.83275
  341          H           0.167255        0.8327     0.83275
  342          H           0.175136        0.8249     0.82486
  343          H           0.167255        0.8327     0.83275
  344          H           0.167255        0.8327     0.83275
  345          H           0.175136        0.8249     0.82486
  346          H           0.167255        0.8327     0.83275
  347          H           0.175136        0.8249     0.82486
  348          H           0.175136        0.8249     0.82486
  349          H           0.175136        0.8249     0.82486
  350          H           0.175136        0.8249     0.82486
  351          H           0.175136        0.8249     0.82486
  352          H           0.167255        0.8327     0.83275
  353          H           0.167255        0.8327     0.83275
  354          H           0.167255        0.8327     0.83275
  355          H           0.167255        0.8327     0.83275
  356          H           0.175136        0.8249     0.82486
  357          H           0.175136        0.8249     0.82486
  358          H           0.175136        0.8249     0.82486
  359          H           0.175136        0.8249     0.82486
  360          H           0.167255        0.8327     0.83275


          ATOMIC ORBITAL ELECTRON POPULATIONS

     Atom    s        px        py        pz   
    1  N   1.53354   1.09876   1.18415   1.38662
    2  N   1.53354   1.38662   1.09876   1.18415
    3  N   1.53354   1.38662   1.09876   1.18415
    4  N   1.53354   1.18415   1.38662   1.09876
    5  N   1.53354   1.18415   1.38662   1.09876
    6  N   1.53354   1.09876   1.18415   1.38662
    7  N   1.53354   1.09876   1.18415   1.38662
    8  N   1.53354   1.09876   1.18415   1.38662
    9  N   1.53354   1.18415   1.38662   1.09876
   10  N   1.53354   1.38662   1.09876   1.18415
   11  N   1.53354   1.18415   1.38662   1.09876
   12  N   1.53354   1.38662   1.09876   1.18415
   13  N   1.52985   1.18287   1.11394   1.43722
   14  N   1.52985   1.43722   1.18287   1.11394
   15  N   1.52985   1.43722   1.18287   1.11394
   16  N   1.52985   1.11394   1.43722   1.18287
   17  N   1.52985   1.11394   1.43722   1.18287
   18  N   1.52985   1.18287   1.11394   1.43722
   19  N   1.52985   1.18287   1.11394   1.43722
   20  N   1.52985   1.18287   1.11394   1.43722
   21  N   1.52985   1.11394   1.43722   1.18287
   22  N   1.52985   1.43722   1.18287   1.11394
   23  N   1.52985   1.11394   1.43722   1.18287
   24  N   1.52985   1.43722   1.18287   1.11394
   25  C   1.08985   0.92451   0.94816   0.97695
   26  C   1.08985   0.97695   0.92451   0.94816
   27  C   1.08215   1.02925   1.07230   0.99869
   28  C   1.08985   0.97695   0.92451   0.94816
   29  C   1.08985   0.94816   0.97695   0.92451
   30  C   1.08215   1.07230   0.99869   1.02925
   31  C   1.08985   0.94816   0.97695   0.92451
   32  C   1.08985   0.92451   0.94816   0.97695
   33  C   1.08215   1.07230   0.99869   1.02925
   34  C   1.08985   0.92451   0.94816   0.97695
   35  C   1.08215   1.07230   0.99869   1.02925
   36  C   1.08215   1.02925   1.07230   0.99869
   37  C   1.08215   0.99869   1.02925   1.07230
   38  C   1.08215   1.02925   1.07230   0.99869
   39  C   1.08215   1.07230   0.99869   1.02925
   40  C   1.08985   0.92451   0.94816   0.97695
   41  C   1.08985   0.94816   0.97695   0.92451
   42  C   1.08985   0.97695   0.92451   0.94816
   43  C   1.08985   0.94816   0.97695   0.92451
   44  C   1.08215   0.99869   1.02925   1.07230
   45  C   1.08215   1.02925   1.07230   0.99869
   46  C   1.08215   0.99869   1.02925   1.07230
   47  C   1.08215   0.99869   1.02925   1.07230
   48  C   1.08985   0.97695   0.92451   0.94816
   49  C   1.06617   1.05769   1.06049   1.09332
   50  C   1.06617   1.09332   1.05769   1.06049
   51  C   1.08234   0.99832   1.04474   1.00122
   52  C   1.06617   1.09332   1.05769   1.06049
   53  C   1.06617   1.06049   1.09332   1.05769
   54  C   1.08234   1.04474   1.00122   0.99832
   55  C   1.06617   1.06049   1.09332   1.05769
   56  C   1.06617   1.05769   1.06049   1.09332
   57  C   1.08234   1.04474   1.00122   0.99832
   58  C   1.06617   1.05769   1.06049   1.09332
   59  C   1.08234   1.04474   1.00122   0.99832
   60  C   1.08234   0.99832   1.04474   1.00122
   61  C   1.08234   1.00122   0.99832   1.04474
   62  C   1.08234   0.99832   1.04474   1.00122
   63  C   1.08234   1.04474   1.00122   0.99832
   64  C   1.06617   1.05769   1.06049   1.09332
   65  C   1.06617   1.06049   1.09332   1.05769
   66  C   1.06617   1.09332   1.05769   1.06049
   67  C   1.06617   1.06049   1.09332   1.05769
   68  C   1.08234   1.00122   0.99832   1.04474
   69  C   1.08234   0.99832   1.04474   1.00122
   70  C   1.08234   1.00122   0.99832   1.04474
   71  C   1.08234   1.00122   0.99832   1.04474
   72  C   1.06617   1.09332   1.05769   1.06049
   73  C   1.07033   0.78122   0.99258   0.94359
   74  C   1.07033   0.94359   0.78122   0.99258
   75  C   1.05048   1.01307   1.11795   0.97786
   76  C   1.07033   0.94359   0.78122   0.99258
   77  C   1.07033   0.99258   0.94359   0.78122
   78  C   1.05048   1.11795   0.97786   1.01307
   79  C   1.07033   0.99258   0.94359   0.78122
   80  C   1.07033   0.78122   0.99258   0.94359
   81  C   1.05048   1.11795   0.97786   1.01307
   82  C   1.07033   0.78122   0.99258   0.94359
   83  C   1.05048   1.11795   0.97786   1.01307
   84  C   1.05048   1.01307   1.11795   0.97786
   85  C   1.05048   0.97786   1.01307   1.11795
   86  C   1.05048   1.01307   1.11795   0.97786
   87  C   1.05048   1.11795   0.97786   1.01307
   88  C   1.07033   0.78122   0.99258   0.94359
   89  C   1.07033   0.99258   0.94359   0.78122
   90  C   1.07033   0.94359   0.78122   0.99258
   91  C   1.07033   0.99258   0.94359   0.78122
   92  C   1.05048   0.97786   1.01307   1.11795
   93  C   1.05048   1.01307   1.11795   0.97786
   94  C   1.05048   0.97786   1.01307   1.11795
   95  C   1.05048   0.97786   1.01307   1.11795
   96  C   1.07033   0.94359   0.78122   0.99258
   97  C   1.05283   0.97151   0.98218   0.81668
   98  C   1.05283   0.81668   0.97151   0.98218
   99  C   1.07070   0.95732   0.96232   0.96769
  100  C   1.05283   0.81668   0.97151   0.98218
  101  C   1.05283   0.98218   0.81668   0.97151
  102  C   1.07070   0.96232   0.96769   0.95732
  103  C   1.05283   0.98218   0.81668   0.97151
  104  C   1.05283   0.97151   0.98218   0.81668
  105  C   1.07070   0.96232   0.96769   0.95732
  106  C   1.05283   0.97151   0.98218   0.81668
  107  C   1.07070   0.96232   0.96769   0.95732
  108  C   1.07070   0.95732   0.96232   0.96769
  109  C   1.07070   0.96769   0.95732   0.96232
  110  C   1.07070   0.95732   0.96232   0.96769
  111  C   1.07070   0.96232   0.96769   0.95732
  112  C   1.05283   0.97151   0.98218   0.81668
  113  C   1.05283   0.98218   0.81668   0.97151
  114  C   1.05283   0.81668   0.97151   0.98218
  115  C   1.05283   0.98218   0.81668   0.97151
  116  C   1.07070   0.96769   0.95732   0.96232
  117  C   1.07070   0.95732   0.96232   0.96769
  118  C   1.07070   0.96769   0.95732   0.96232
  119  C   1.07070   0.96769   0.95732   0.96232
  120  C   1.05283   0.81668   0.97151   0.98218
  121  C   1.04732   0.99399   0.99979   1.10861
  122  C   1.04732   1.10861   0.99399   0.99979
  123  C   1.06634   0.98531   0.98213   0.97955
  124  C   1.04732   1.10861   0.99399   0.99979
  125  C   1.04732   0.99979   1.10861   0.99399
  126  C   1.06634   0.98213   0.97955   0.98531
  127  C   1.04732   0.99979   1.10861   0.99399
  128  C   1.04732   0.99399   0.99979   1.10861
  129  C   1.06634   0.98213   0.97955   0.98531
  130  C   1.04732   0.99399   0.99979   1.10861
  131  C   1.06634   0.98213   0.97955   0.98531
  132  C   1.06634   0.98531   0.98213   0.97955
  133  C   1.06634   0.97955   0.98531   0.98213
  134  C   1.06634   0.98531   0.98213   0.97955
  135  C   1.06634   0.98213   0.97955   0.98531
  136  C   1.04732   0.99399   0.99979   1.10861
  137  C   1.04732   0.99979   1.10861   0.99399
  138  C   1.04732   1.10861   0.99399   0.99979
  139  C   1.04732   0.99979   1.10861   0.99399
  140  C   1.06634   0.97955   0.98531   0.98213
  141  C   1.06634   0.98531   0.98213   0.97955
  142  C   1.06634   0.97955   0.98531   0.98213
  143  C   1.06634   0.97955   0.98531   0.98213
  144  C   1.04732   1.10861   0.99399   0.99979
  145  C   1.06969   1.02278   0.98401   0.96904
  146  C   1.06969   0.98401   0.96904   1.02278
  147  C   1.06969   0.98401   0.96904   1.02278
  148  C   1.06969   0.98401   0.96904   1.02278
  149  C   1.06969   1.02278   0.98401   0.96904
  150  C   1.06969   0.96904   1.02278   0.98401
  151  C   1.06969   1.02278   0.98401   0.96904
  152  C   1.06969   0.98401   0.96904   1.02278
  153  C   1.06969   0.96904   1.02278   0.98401
  154  C   1.06969   1.02278   0.98401   0.96904
  155  C   1.06969   0.96904   1.02278   0.98401
  156  C   1.06969   0.96904   1.02278   0.98401
  157  C   1.05507   0.99599   1.02562   0.98259
  158  C   1.05507   0.98259   0.99599   1.02562
  159  C   1.03315   0.97689   1.10548   1.00234
  160  C   1.05507   0.98259   0.99599   1.02562
  161  C   1.05507   1.02562   0.98259   0.99599
  162  C   1.03315   1.10548   1.00234   0.97689
  163  C   1.05507   1.02562   0.98259   0.99599
  164  C   1.05507   0.99599   1.02562   0.98259
  165  C   1.03315   1.10548   1.00234   0.97689
  166  C   1.05507   0.99599   1.02562   0.98259
  167  C   1.03315   1.10548   1.00234   0.97689
  168  C   1.03315   0.97689   1.10548   1.00234
  169  C   1.03315   1.00234   0.97689   1.10548
  170  C   1.03315   0.97689   1.10548   1.00234
  171  C   1.03315   1.10548   1.00234   0.97689
  172  C   1.05507   0.99599   1.02562   0.98259
  173  C   1.05507   1.02562   0.98259   0.99599
  174  C   1.05507   0.98259   0.99599   1.02562
  175  C   1.05507   1.02562   0.98259   0.99599
  176  C   1.03315   1.00234   0.97689   1.10548
  177  C   1.03315   0.97689   1.10548   1.00234
  178  C   1.03315   1.00234   0.97689   1.10548
  179  C   1.03315   1.00234   0.97689   1.10548
  180  C   1.05507   0.98259   0.99599   1.02562
  181  C   1.06617   0.94987   0.82577   0.92980
  182  C   1.06617   0.92980   0.94987   0.82577
  183  C   1.06155   1.02078   0.98572   0.97727
  184  C   1.06617   0.92980   0.94987   0.82577
  185  C   1.06617   0.82577   0.92980   0.94987
  186  C   1.06155   0.98572   0.97727   1.02078
  187  C   1.06617   0.82577   0.92980   0.94987
  188  C   1.06617   0.94987   0.82577   0.92980
  189  C   1.06155   0.98572   0.97727   1.02078
  190  C   1.06617   0.94987   0.82577   0.92980
  191  C   1.06155   0.98572   0.97727   1.02078
  192  C   1.06155   1.02078   0.98572   0.97727
  193  C   1.06155   0.97727   1.02078   0.98572
  194  C   1.06155   1.02078   0.98572   0.97727
  195  C   1.06155   0.98572   0.97727   1.02078
  196  C   1.06617   0.94987   0.82577   0.92980
  197  C   1.06617   0.82577   0.92980   0.94987
  198  C   1.06617   0.92980   0.94987   0.82577
  199  C   1.06617   0.82577   0.92980   0.94987
  200  C   1.06155   0.97727   1.02078   0.98572
  201  C   1.06155   1.02078   0.98572   0.97727
  202  C   1.06155   0.97727   1.02078   0.98572
  203  C   1.06155   0.97727   1.02078   0.98572
  204  C   1.06617   0.92980   0.94987   0.82577
  205  C   1.01585   0.96111   0.87202   1.23504
  206  C   1.01585   1.23504   0.96111   0.87202
  207  C   1.06308   0.96281   0.95107   0.94811
  208  C   1.01585   1.23504   0.96111   0.87202
  209  C   1.01585   0.87202   1.23504   0.96111
  210  C   1.06308   0.95107   0.94811   0.96281
  211  C   1.01585   0.87202   1.23504   0.96111
  212  C   1.01585   0.96111   0.87202   1.23504
  213  C   1.06308   0.95107   0.94811   0.96281
  214  C   1.01585   0.96111   0.87202   1.23504
  215  C   1.06308   0.95107   0.94811   0.96281
  216  C   1.06308   0.96281   0.95107   0.94811
  217  C   1.06308   0.94811   0.96281   0.95107
  218  C   1.06308   0.96281   0.95107   0.94811
  219  C   1.06308   0.95107   0.94811   0.96281
  220  C   1.01585   0.96111   0.87202   1.23504
  221  C   1.01585   0.87202   1.23504   0.96111
  222  C   1.01585   1.23504   0.96111   0.87202
  223  C   1.01585   0.87202   1.23504   0.96111
  224  C   1.06308   0.94811   0.96281   0.95107
  225  C   1.06308   0.96281   0.95107   0.94811
  226  C   1.06308   0.94811   0.96281   0.95107
  227  C   1.06308   0.94811   0.96281   0.95107
  228  C   1.01585   1.23504   0.96111   0.87202
  229  C   1.04623   0.86799   0.95182   0.95386
  230  C   1.04623   0.95386   0.86799   0.95182
  231  C   1.06819   0.97857   0.97396   0.98045
  232  C   1.04623   0.95386   0.86799   0.95182
  233  C   1.04623   0.95182   0.95386   0.86799
  234  C   1.06819   0.97396   0.98045   0.97857
  235  C   1.04623   0.95182   0.95386   0.86799
  236  C   1.04623   0.86799   0.95182   0.95386
  237  C   1.06819   0.97396   0.98045   0.97857
  238  C   1.04623   0.86799   0.95182   0.95386
  239  C   1.06819   0.97396   0.98045   0.97857
  240  C   1.06819   0.97857   0.97396   0.98045
  241  C   1.06819   0.98045   0.97857   0.97396
  242  C   1.06819   0.97857   0.97396   0.98045
  243  C   1.06819   0.97396   0.98045   0.97857
  244  C   1.04623   0.86799   0.95182   0.95386
  245  C   1.04623   0.95182   0.95386   0.86799
  246  C   1.04623   0.95386   0.86799   0.95182
  247  C   1.04623   0.95182   0.95386   0.86799
  248  C   1.06819   0.98045   0.97857   0.97396
  249  C   1.06819   0.97857   0.97396   0.98045
  250  C   1.06819   0.98045   0.97857   0.97396
  251  C   1.06819   0.98045   0.97857   0.97396
  252  C   1.04623   0.95386   0.86799   0.95182
  253  C   1.08442   1.00264   0.99411   0.96275
  254  C   1.08442   0.96275   1.00264   0.99411
  255  C   1.07427   1.12295   1.00963   1.05128
  256  C   1.08442   0.96275   1.00264   0.99411
  257  C   1.08442   0.99411   0.96275   1.00264
  258  C   1.07427   1.00963   1.05128   1.12295
  259  C   1.08442   0.99411   0.96275   1.00264
  260  C   1.08442   1.00264   0.99411   0.96275
  261  C   1.07427   1.00963   1.05128   1.12295
  262  C   1.08442   1.00264   0.99411   0.96275
  263  C   1.07427   1.00963   1.05128   1.12295
  264  C   1.07427   1.12295   1.00963   1.05128
  265  C   1.07427   1.05128   1.12295   1.00963
  266  C   1.07427   1.12295   1.00963   1.05128
  267  C   1.07427   1.00963   1.05128   1.12295
  268  C   1.08442   1.00264   0.99411   0.96275
  269  C   1.08442   0.99411   0.96275   1.00264
  270  C   1.08442   0.96275   1.00264   0.99411
  271  C   1.08442   0.99411   0.96275   1.00264
  272  C   1.07427   1.05128   1.12295   1.00963
  273  C   1.07427   1.12295   1.00963   1.05128
  274  C   1.07427   1.05128   1.12295   1.00963
  275  C   1.07427   1.05128   1.12295   1.00963
  276  C   1.08442   0.96275   1.00264   0.99411
  277  C   1.06180   0.97350   0.96945   0.95544
  278  C   1.06180   0.96945   0.95544   0.97350
  279  C   1.06180   0.96945   0.95544   0.97350
  280  C   1.06180   0.96945   0.95544   0.97350
  281  C   1.06180   0.97350   0.96945   0.95544
  282  C   1.06180   0.95544   0.97350   0.96945
  283  C   1.06180   0.97350   0.96945   0.95544
  284  C   1.06180   0.96945   0.95544   0.97350
  285  C   1.06180   0.95544   0.97350   0.96945
  286  C   1.06180   0.97350   0.96945   0.95544
  287  C   1.06180   0.95544   0.97350   0.96945
  288  C   1.06180   0.95544   0.97350   0.96945
  289  H   0.82119
  290  H   0.82119
  291  H   0.84336
  292  H   0.82119
  293  H   0.82119
  294  H   0.84336
  295  H   0.82119
  296  H   0.82119
  297  H   0.84336
  298  H   0.82119
  299  H   0.84336
  300  H   0.84336
  301  H   0.84336
  302  H   0.84336
  303  H   0.84336
  304  H   0.82119
  305  H   0.82119
  306  H   0.82119
  307  H   0.82119
  308  H   0.84336
  309  H   0.84336
  310  H   0.84336
  311  H   0.84336
  312  H   0.82119
  313  H   0.81691
  314  H   0.81691
  315  H   0.84446
  316  H   0.81691
  317  H   0.81691
  318  H   0.84446
  319  H   0.81691
  320  H   0.81691
  321  H   0.84446
  322  H   0.81691
  323  H   0.84446
  324  H   0.84446
  325  H   0.84446
  326  H   0.84446
  327  H   0.84446
  328  H   0.81691
  329  H   0.81691
  330  H   0.81691
  331  H   0.81691
  332  H   0.84446
  333  H   0.84446
  334  H   0.84446
  335  H   0.84446
  336  H   0.81691
  337  H   0.83275
  338  H   0.83275
  339  H   0.82486
  340  H   0.83275
  341  H   0.83275
  342  H   0.82486
  343  H   0.83275
  344  H   0.83275
  345  H   0.82486
  346  H   0.83275
  347  H   0.82486
  348  H   0.82486
  349  H   0.82486
  350  H   0.82486
  351  H   0.82486
  352  H   0.83275
  353  H   0.83275
  354  H   0.83275
  355  H   0.83275
  356  H   0.82486
  357  H   0.82486
  358  H   0.82486
  359  H   0.82486
  360  H   0.83275

 **********************
 *                    *
 * JOB ENDED NORMALLY *
 *                    *
 **********************



 TOTAL JOB TIME:           144.91 SECONDS

 == MOPAC DONE ==
