# LAMMPS data file

360 atoms
4 atom types

0.0 24.6692008972 xlo xhi
0.0 24.6692008972 ylo yhi
0.0 24.6692008972 zlo zhi

Atoms  # atomic

1 1 15.657393306 5.351637574 2.890465605
2 1 16.335969191 6.037613977 5.071839401
3 1 16.474044064 5.142418183 3.978155186
4 1 17.204151551 5.749873076 6.091713631
5 1 17.585192207 4.245446514 4.171191735
6 1 21.013989066 3.324224291 0.295519748
7 1 21.826149225 2.512040054 5.871812526
8 1 21.721453879 0.723281251 3.416265016
9 1 19.225201683 3.219552471 2.75108465
10 1 20.375724169 2.487173402 2.524152649
11 1 20.989073156 1.873815776 3.643172205
12 1 21.811915764 1.194100332 1.075093684
13 1 19.696013136 3.310039352 5.092240819
14 1 22.055918178 0.296015594 2.137090525
15 1 18.797858164 3.554165647 4.030355452
16 1 21.01142322 2.336654358 1.278251908
17 1 20.838566059 2.50952365 4.889090131
18 1 9.490168072 9.057814904 0.815640226
19 1 10.168521192 11.239040741 0.129583859
20 1 11.417867721 10.338443436 1.922026849
21 1 11.037271861 12.25908811 0.417425081
22 1 10.306643853 10.145308003 1.024884339
23 1 14.846640318 6.462787923 2.843051304
24 1 15.644614069 7.242383892 4.973187761
25 1 14.844099469 7.445534947 3.830633368
26 1 15.888617953 8.304392771 5.871220323
27 1 15.658898995 12.039064227 3.655235358
28 1 13.057876462 8.918335065 2.947772199
29 1 15.554177181 9.583490618 5.444023844
30 1 14.821774402 9.810423171 4.293477096
31 1 14.208373951 8.691403982 3.68010201
32 1 13.528639392 11.259615298 2.85731013
33 1 12.630482949 10.19755716 2.613257723
34 1 14.671168789 11.056341465 3.657751578
35 1 2.890465605 15.657418303 5.351662204
36 1 5.071765513 16.335870674 6.037712861
37 1 3.978180183 16.474067591 5.142418183
38 1 6.091787886 17.204300061 5.749897337
39 1 4.171167105 17.5852422 4.245421518
40 1 15.611336 13.150189579 2.844432928
41 1 13.430159421 12.464311693 2.166113628
42 1 14.33088171 14.256775073 0.916450963
43 1 12.410112787 12.752718685 1.297609894
44 1 14.523596609 13.359309718 2.028020374
45 1 5.871812526 21.826174222 2.512040054
46 1 0.29551235 21.013964069 3.32424892
47 1 2.751059837 19.22522668 3.219528209
48 1 3.416265016 21.721453879 0.723300964
49 1 3.643172205 20.989098152 1.873818165
50 1 2.524152649 20.375699172 2.487198215
51 1 5.092240819 19.696038133 3.310014723
52 1 1.075118314 21.811915764 1.194122572
53 1 4.030602112 18.79765966 3.554363048
54 1 2.136671094 22.056288718 0.295756597
55 1 4.889065502 20.838541062 2.50952365
56 1 1.278256778 21.01142322 2.336671636
57 1 6.982937877 21.778734741 3.322793225
58 1 6.296912216 19.597436119 4.001270593
59 1 6.585122175 18.577511528 4.869749606
60 1 7.192157269 20.690946826 4.13946751
61 1 8.089277815 20.498108414 5.250691745
62 1 23.853561774 21.824695001 3.276859432
63 1 24.539491124 22.503269415 1.095425994
64 1 22.747323293 23.752493901 1.996081287
65 1 23.644318121 22.641317821 2.189142281
66 1 24.251650235 23.371528236 0.075536594
67 1 9.057741384 0.815642708 9.490093817
68 1 11.239139993 0.1296855 10.168668967
69 1 10.338491959 1.92186143 11.417917714
70 1 12.259013855 0.417474431 11.036926317
71 1 10.145603553 1.024918985 10.306865883
72 1 21.778734741 3.322817854 6.982937877
73 1 19.597336132 4.001295222 6.296936478
74 1 18.577536525 4.869577202 6.58475237
75 1 20.691267373 4.139245112 7.192108011
76 1 20.498034895 5.250592861 8.08913004
77 1 0.815645189 9.490093817 9.057741384
78 1 0.12969314 10.168668967 11.239139993
79 1 1.921878707 11.417892718 10.338466962
80 1 0.4175213 11.03697631 12.259013855
81 1 1.024894264 10.306768101 10.145529298
82 1 16.580046595 8.163433711 7.083982958
83 1 18.084350011 6.242985335 7.464974356
84 1 18.372189429 7.262736419 8.333181713
85 1 17.47699437 8.356371375 8.195084048
86 1 17.68626302 9.444160024 9.011806856
87 1 21.918116799 6.890576973 9.115047978
88 1 22.145049351 8.04112372 9.847426496
89 1 19.576985811 7.361437684 9.024561096
90 1 20.63899322 6.463355497 8.780557947
91 1 18.797389106 9.491573774 9.822560579
92 1 24.373713934 8.679340829 9.010326899
93 1 21.252936248 9.386852695 11.611300174
94 1 21.026028693 8.654498439 10.460777688
95 1 23.59411723 9.477315315 11.140487986
96 1 22.532527414 9.721664008 12.038841462
97 1 19.78013466 8.503966346 9.825076431
98 1 23.39096544 8.676824242 9.997933592
99 1 2.843051304 14.846640318 6.462812919
100 1 4.973187761 15.644639066 7.24235963
101 1 3.830633368 14.844124466 7.445534947
102 1 5.871417724 15.888839984 8.304170741
103 1 3.655260354 15.658849001 12.039087754
104 1 2.94774757 13.057901458 8.918360061
105 1 5.443999582 15.554153655 9.583540612
106 1 4.293501358 14.821799398 9.810448167
107 1 3.68010201 14.208398947 8.691453241
108 1 2.857285685 13.528712911 11.259516781
109 1 2.613208464 12.630581466 10.197606418
110 1 3.657776575 14.671267305 11.056365726
111 1 7.083982958 16.580021599 8.163457972
112 1 7.465122131 18.084498521 6.242664788
113 1 8.333181713 18.372140906 7.262809939
114 1 8.195009793 17.47699437 8.356247861
115 1 9.011856114 17.68626302 9.444184286
116 1 9.115072239 21.918215315 6.890625496
117 1 9.847426496 22.145097874 8.04112372
118 1 9.024586093 19.57705786 7.36138769
119 1 8.780188142 20.638525633 6.463009953
120 1 9.010326899 24.373713934 8.679364356
121 1 9.822535582 18.797389106 9.491548777
122 1 11.6113237 21.252986242 9.386877692
123 1 10.460752691 21.026028693 8.654473442
124 1 11.140487986 23.59411723 9.477338841
125 1 12.038669425 22.532305383 9.721490501
126 1 9.997908595 23.390941913 8.676799245
127 1 9.825076431 19.78013466 8.503991343
128 1 13.63227458 24.593590042 11.91709831
129 1 15.179107815 21.392341833 11.51896206
130 1 14.500531931 23.573740441 12.204914201
131 1 13.251282448 22.673068146 10.412722109
132 1 14.362433531 22.48010475 11.309718407
133 1 5.351662204 2.890440976 15.65736978
134 1 6.037638974 5.071815139 16.335945665
135 1 5.142418183 3.978204812 16.474092587
136 1 5.749774191 6.091738628 17.204226541
137 1 4.245446514 4.171191735 17.585217204
138 1 6.462787923 2.843051304 14.846640318
139 1 7.242408888 4.973162765 15.644614069
140 1 7.445559943 3.830633368 14.844124466
141 1 8.30429499 5.871319207 15.88871794
142 1 12.03911275 3.655260354 15.658849001
143 1 9.583540612 5.443999582 15.554153655
144 1 8.918385058 2.94774757 13.057901458
145 1 8.691453241 3.68010201 14.208422474
146 1 9.810473164 4.293477096 14.821799398
147 1 11.259516781 2.857260872 13.528712911
148 1 10.197679938 2.613134393 12.630531472
149 1 11.056365726 3.657776575 14.671267305
150 1 13.150238102 2.844506815 15.611435987
151 1 12.464261699 2.165965669 13.430085901
152 1 14.256479523 0.916687789 14.3307332
153 1 12.752102587 1.297686263 12.410211304
154 1 13.359481755 2.027874989 14.523745119
155 1 8.163457972 7.083982958 16.580021599
156 1 6.242960338 7.464900101 18.084325014
157 1 7.26276068 8.333255968 18.372214426
158 1 8.356444895 8.195158303 17.477019367
159 1 9.444135027 9.011806856 17.68626302
160 1 24.593613568 11.91709831 13.632249584
161 1 21.392366829 11.51896206 15.179082819
162 1 23.573740441 12.204964195 14.500581924
163 1 22.67311814 10.412747106 13.251258921
164 1 22.480154744 11.30969341 14.362385008
165 1 2.844506815 15.611459513 13.150238102
166 1 2.166007575 13.430085901 12.464236702
167 1 0.916710028 14.3307332 14.256454526
168 1 1.297725688 12.410187777 12.752052594
169 1 2.02792921 14.523795112 13.359458228
170 1 21.344952345 12.630112408 15.989835806
171 1 23.945923414 15.750840101 15.28232394
172 1 22.795403869 15.977772653 16.014678197
173 1 23.475088434 13.409684116 15.191862056
174 1 24.373318397 14.471470966 14.947661138
175 1 22.33253404 13.612860903 15.992351659
176 1 22.157161027 18.20641371 15.177602127
177 1 22.15967688 17.223665215 16.165208819
178 1 21.449674158 15.085709544 17.778599663
179 1 22.182026944 14.858753465 16.62805218
180 1 21.115059879 16.36500663 18.205944653
181 1 21.359187277 17.426842002 17.307738216
182 1 15.989860803 21.344952345 12.630088882
183 1 15.282348937 23.945901358 15.750816574
184 1 16.01472672 22.795378872 15.977749127
185 1 15.191862056 23.475088434 13.409684116
186 1 14.947686135 24.3732934 14.471470966
187 1 15.992376656 22.33253404 13.612835906
188 1 17.778599663 21.449649162 15.085661021
189 1 16.628077177 22.182026944 14.858728468
190 1 18.205869662 21.115183393 16.364808126
191 1 15.17765212 22.157161027 18.206388713
192 1 16.165233816 22.159701877 17.223641689
193 1 17.30778821 21.359187277 17.426793479
194 1 21.34640804 19.317563323 15.225016612
195 1 20.529758752 19.526806976 16.312731006
196 1 20.667832155 18.63158692 17.406438746
197 1 19.418609139 20.423779747 16.505742925
198 1 19.799499814 18.919501329 18.426164834
199 1 3.32424892 0.295509892 21.013964069
200 1 2.512064867 5.871812526 21.826149225
201 1 0.723276289 3.416191129 21.721453879
202 1 3.219528209 2.751035392 19.22522668
203 1 2.487173402 2.52412802 20.375724169
204 1 1.873808424 3.643172205 20.989098152
205 1 1.194115128 1.075064001 21.811915764
206 1 3.310014723 5.092216557 19.696013136
207 1 0.296030413 2.137065712 22.055968171
208 1 3.554214906 4.030453969 18.797783173
209 1 2.336644433 1.278244556 21.011448217
210 1 2.50952365 4.889065502 20.838566059
211 1 21.824719998 3.276859432 23.853586771
212 1 22.503269415 1.095393921 24.539491124
213 1 23.752443908 1.996110879 22.74734829
214 1 22.641342818 2.189125187 23.644318121
215 1 23.371503239 0.075530437 24.251650235
216 1 3.322817854 6.982962874 21.778709744
217 1 4.001196706 6.296837961 19.597386126
218 1 4.869552205 6.584678114 18.577364488
219 1 4.139392887 7.192157269 20.69106887
220 1 5.250617123 8.089179299 20.497984901
221 1 6.890601234 9.115072239 21.918141795
222 1 8.04112372 9.847402234 22.145049351
223 1 7.361412687 9.024586093 19.576960814
224 1 6.463231983 8.78045943 20.638821183
225 1 8.679340829 9.010301902 24.373663941
226 1 9.491573774 9.822560579 18.797389106
227 1 9.386901954 11.611275177 21.252961245
228 1 8.654547697 10.460801215 21.026053689
229 1 9.477438093 11.140462989 23.594240743
230 1 9.721441978 12.03852018 22.532156873
231 1 8.676824242 9.997884334 23.39096544
232 1 8.503966346 9.825076431 19.78013466
233 1 11.917222558 13.633064185 24.593984109
234 1 11.519061312 15.179107815 21.392268313
235 1 12.20459439 14.50045694 23.573790435
236 1 10.412869885 13.251233924 22.673043149
237 1 11.309792662 14.362310017 22.480450294
238 1 12.630088882 15.989762286 21.344977341
239 1 15.751063601 15.282445984 23.945923414
240 1 15.977846173 16.014701723 22.795403869
241 1 13.409832626 15.191935576 23.475235474
242 1 14.471741519 14.947981685 24.37321988
243 1 13.612835906 15.992376656 22.33245905
244 1 18.206485759 15.17765212 22.157111034
245 1 17.223591695 16.165208819 22.159725403
246 1 15.085734541 17.778723177 21.449549174
247 1 14.858703472 16.627955134 22.182076938
248 1 16.36500663 18.205969649 21.114984889
249 1 17.426915522 17.307911724 21.359038767
250 1 19.317563323 15.225065135 21.34640804
251 1 19.526831973 16.31285599 20.529685232
252 1 18.631486933 17.406463743 20.667930672
253 1 20.42375475 16.505841442 19.418584142
254 1 18.919279298 18.426388335 19.799648325
255 1 3.276834435 23.853561774 21.824719998
256 1 1.095453196 24.539564644 22.503195895
257 1 1.996096175 22.74734829 23.752543895
258 1 2.189046154 23.644293124 22.641442805
259 1 0.075540052 24.251650235 23.371478242
260 1 15.225065135 21.346433036 19.317538326
261 1 16.312805996 20.529758752 19.526758453
262 1 17.406438746 20.667882148 18.631536927
263 1 16.505767922 19.418584142 20.42375475
264 1 18.426313344 19.799648325 18.919376345
265 2 15.693213695 4.662528119 2.046065846
266 2 22.723195517 1.911757032 5.717926085
267 2 20.413714866 4.221319841 0.449421054
268 2 22.060185275 0.12415664 4.261579732
269 2 18.626111154 3.558236079 1.905732807
270 2 9.525888474 8.213314055 1.504749682
271 2 14.246364649 6.616673996 1.946000234
272 2 12.45873594 8.073045346 2.609039332
273 2 15.892885051 10.428855327 6.043066216
274 2 16.555895293 11.885152422 4.255461769
275 2 2.046046363 15.693188698 4.662528119
276 2 16.455862581 13.839274405 2.808563832
277 2 5.717901456 22.723195517 1.911759421
278 2 0.449421054 20.41368987 4.221319841
279 2 1.905740159 18.626086158 3.558260708
280 2 4.261579732 22.060185275 0.124181062
281 2 7.672071962 22.623162805 3.358613247
282 2 23.164478418 21.86051392 4.121261397
283 2 8.213364048 1.504776884 9.525888474
284 2 22.623137809 3.358613247 7.672071962
285 2 1.504771921 9.525888474 8.213339051
286 2 16.9971282 10.28853736 8.976012199
287 2 24.219801394 8.079064424 8.113280608
288 2 22.763480037 6.291484974 8.776340108
289 2 18.951300176 10.388620065 10.42286051
290 2 20.407620063 9.725585562 12.210414964
291 2 1.945997845 14.246339652 6.616698993
292 2 2.609039332 12.458785933 8.073045346
293 2 6.043115475 15.892885051 10.428855327
294 2 4.255535657 16.555920289 11.88520168
295 2 8.976012199 16.9971282 10.28853736
296 2 8.776340108 22.76345504 6.291484974
297 2 8.113280608 24.219801394 8.079064424
298 2 10.422835514 18.951300176 10.388595068
299 2 12.210414964 20.407645059 9.725585562
300 2 15.143312423 20.547965232 10.829828711
301 2 4.662528119 2.046051142 15.693188698
302 2 6.616698993 1.945992882 14.246339652
303 2 8.073045346 2.609039332 12.458785933
304 2 10.428880324 6.043115475 15.892885051
305 2 11.88520168 4.255535657 16.555895293
306 2 13.839371451 2.808711791 16.455837584
307 2 10.28853736 8.976012199 16.9971282
308 2 20.547965232 10.829828711 15.143312423
309 2 2.808687345 16.455837584 13.839371451
310 2 20.447906053 12.783998482 16.590136473
311 2 22.757460224 18.052527637 14.280555835
312 2 24.545040409 16.596181283 14.94361607
313 2 21.110939821 14.240344835 18.377691662
314 2 16.590136473 20.447881057 12.783998482
315 2 18.377716659 21.110939821 14.240321309
316 2 14.280605829 22.757460224 18.05250264
317 2 14.94361607 24.545016883 16.596156286
318 2 21.310612647 20.006673146 14.380615014
319 2 1.911776698 5.717926085 22.723195517
320 2 4.221295211 0.449413656 20.41368987
321 2 0.124153423 4.26155547 22.060161749
322 2 3.558260708 1.905717919 18.626086158
323 2 21.860562443 4.121236401 23.164478418
324 2 3.358613247 7.672096959 22.623137809
325 2 8.079089421 8.113280608 24.219776397
326 2 6.291484974 8.776364369 22.763480037
327 2 10.388620065 10.42286051 18.95127518
328 2 9.725609824 12.210414964 20.407670056
329 2 10.829877969 15.143213906 20.547965232
330 2 12.783998482 16.590111476 20.447881057
331 2 18.052552633 14.280630826 22.757413171
332 2 16.596181283 14.943713117 24.545165393
333 2 14.240344835 18.377666665 21.110889828
334 2 20.006721669 14.380713531 21.310587651
335 2 4.121236401 23.164454892 21.860538916
336 2 14.380665008 21.310612647 20.006673146
337 4 17.853914968 4.717441639 5.428926155
338 4 11.685997176 11.596250641 1.449833589
339 4 5.428555982 17.853989958 4.717392748
340 4 13.072012877 13.783349251 0.648400311
341 4 7.616961409 19.240348262 5.519462295
342 4 23.219515451 24.021018159 0.73815181
343 4 11.596053607 1.449727445 11.686466969
344 4 19.239954195 5.519437665 7.617134181
345 4 1.449678278 11.68649123 11.596250641
346 4 17.05233874 6.905600039 6.815532956
347 4 6.815187412 17.052166703 6.905797072
348 4 12.982586153 23.930753308 10.884816486
349 4 4.717491265 5.428852267 17.853914968
350 4 13.784409408 0.647911863 13.073023041
351 4 6.905649297 6.815409443 17.052213756
352 4 23.930506281 10.884569459 12.982512634
353 4 0.647855115 13.072974518 13.784532922
354 4 19.150084882 19.951512599 17.763650117
355 4 24.021091679 0.738183883 23.219540448
356 4 5.519486924 7.617355476 19.240226219
357 4 10.884791489 12.982364123 23.931048858
358 4 19.951931663 17.763428087 19.149836384
359 4 0.738716764 23.219146381 24.021288712
360 4 17.763503077 19.149812858 19.951733159
