# LAMMPS data file written by OVITO Basic 3.8.4

360 atoms
3 atom types

0.0 24.07 xlo xhi
0.0 24.07 ylo yhi
0.0 24.07 zlo zhi

Masses

1 12.0107  # C
2 1.00794  # H
3 1.00794  # H

Atoms  # full

1 1 1 0.0 17.766067 14.461256 21.22974
2 1 1 0.0 15.626244 11.748567 3.17724
3 1 1 0.0 18.338933 9.608744 9.19474
4 1 1 0.0 20.478756 12.321433 15.21224
5 1 1 0.0 5.731067 21.643744 2.84026
6 1 1 0.0 3.591244 0.286433 20.89276
7 1 1 0.0 6.303933 2.426256 14.87526
8 1 1 0.0 8.443756 23.783567 8.85776
9 1 1 0.0 21.22974 17.766067 14.461256
10 1 1 0.0 3.17724 15.626244 11.748567
11 1 1 0.0 9.19474 18.338933 9.608744
12 1 1 0.0 15.21224 20.478756 12.321433
13 1 1 0.0 2.84026 5.731067 21.643744
14 1 1 0.0 20.89276 3.591244 0.286433
15 1 1 0.0 14.87526 6.303933 2.426256
16 1 1 0.0 8.85776 8.443756 23.783567
17 1 1 0.0 12.321433 15.21224 20.478756
18 1 1 0.0 14.461256 21.22974 17.766067
19 1 1 0.0 11.748567 3.17724 15.626244
20 1 1 0.0 9.608744 9.19474 18.338933
21 1 1 0.0 0.286433 20.89276 3.591244
22 1 1 0.0 2.426256 14.87526 6.303933
23 1 1 0.0 23.783567 8.85776 8.443756
24 1 1 0.0 21.643744 2.84026 5.731067
25 1 1 0.0 18.940683 14.636967 20.420988
26 1 1 0.0 15.450533 12.923183 2.368488
27 1 1 0.0 17.164317 9.433033 8.385988
28 1 1 0.0 20.654467 11.146817 14.403488
29 1 1 0.0 6.905683 21.468033 3.649012
30 1 1 0.0 3.415533 23.181817 21.701512
31 1 1 0.0 5.129317 2.601967 15.684012
32 1 1 0.0 8.619467 0.888183 9.666512
33 1 1 0.0 20.420988 18.940683 14.636967
34 1 1 0.0 2.368488 15.450533 12.923183
35 1 1 0.0 8.385988 17.164317 9.433033
36 1 1 0.0 14.403488 20.654467 11.146817
37 1 1 0.0 3.649012 6.905683 21.468033
38 1 1 0.0 21.701512 3.415533 23.181817
39 1 1 0.0 15.684012 5.129317 2.601967
40 1 1 0.0 9.666512 8.619467 0.888183
41 1 1 0.0 11.146817 14.403488 20.654467
42 1 1 0.0 14.636967 20.420988 18.940683
43 1 1 0.0 12.923183 2.368488 15.450533
44 1 1 0.0 9.433033 8.385988 17.164317
45 1 1 0.0 23.181817 21.701512 3.415533
46 1 1 0.0 2.601967 15.684012 5.129317
47 1 1 0.0 0.888183 9.666512 8.619467
48 1 1 0.0 21.468033 3.649012 6.905683
49 1 1 0.0 15.558848 15.383137 22.141993
50 1 1 0.0 14.704363 9.541348 4.089493
51 1 1 0.0 20.546152 8.686863 10.106993
52 1 1 0.0 21.400637 14.528652 16.124493
53 1 1 0.0 3.523848 20.721863 1.928007
54 1 1 0.0 2.669363 2.493652 19.980507
55 1 1 0.0 8.511152 3.348137 13.963007
56 1 1 0.0 9.365637 21.576348 7.945507
57 1 1 0.0 22.141993 15.558848 15.383137
58 1 1 0.0 4.089493 14.704363 9.541348
59 1 1 0.0 10.106993 20.546152 8.686863
60 1 1 0.0 16.124493 21.400637 14.528652
61 1 1 0.0 1.928007 3.523848 20.721863
62 1 1 0.0 19.980507 2.669363 2.493652
63 1 1 0.0 13.963007 8.511152 3.348137
64 1 1 0.0 7.945507 9.365637 21.576348
65 1 1 0.0 14.528652 16.124493 21.400637
66 1 1 0.0 15.383137 22.141993 15.558848
67 1 1 0.0 9.541348 4.089493 14.704363
68 1 1 0.0 8.686863 10.106993 20.546152
69 1 1 0.0 2.493652 19.980507 2.669363
70 1 1 0.0 3.348137 13.963007 8.511152
71 1 1 0.0 21.576348 7.945507 9.365637
72 1 1 0.0 20.721863 1.928007 3.523848
73 1 1 0.0 19.217488 19.980507 17.985104
74 1 1 0.0 10.106993 13.199988 24.002604
75 1 1 0.0 16.887512 4.089493 5.950104
76 1 1 0.0 1.928007 10.870012 11.967604
77 1 1 0.0 7.182488 16.124493 6.084896
78 1 1 0.0 22.141993 22.905012 0.067396
79 1 1 0.0 4.852512 7.945507 18.119896
80 1 1 0.0 13.963007 1.164988 12.102396
81 1 1 0.0 17.985104 19.217488 19.980507
82 1 1 0.0 24.002604 10.106993 13.199988
83 1 1 0.0 5.950104 16.887512 4.089493
84 1 1 0.0 11.967604 1.928007 10.870012
85 1 1 0.0 6.084896 7.182488 16.124493
86 1 1 0.0 0.067396 22.141993 22.905012
87 1 1 0.0 18.119896 4.852512 7.945507
88 1 1 0.0 12.102396 13.963007 1.164988
89 1 1 0.0 10.870012 11.967604 1.928007
90 1 1 0.0 19.980507 17.985104 19.217488
91 1 1 0.0 13.199988 24.002604 10.106993
92 1 1 0.0 4.089493 5.950104 16.887512
93 1 1 0.0 22.905012 0.067396 22.141993
94 1 1 0.0 7.945507 18.119896 4.852512
95 1 1 0.0 1.164988 12.102396 13.963007
96 1 1 0.0 16.124493 6.084896 7.182488
97 1 1 0.0 18.456876 16.94528 20.563001
98 1 1 0.0 13.14222 12.439376 2.510501
99 1 1 0.0 17.648124 7.12472 8.528001
100 1 1 0.0 22.96278 11.630624 14.545501
101 1 1 0.0 6.421876 19.15972 3.506999
102 1 1 0.0 1.10722 23.665624 21.559499
103 1 1 0.0 5.613124 4.91028 15.541999
104 1 1 0.0 10.92778 0.404376 9.524499
105 1 1 0.0 20.563001 18.456876 16.94528
106 1 1 0.0 2.510501 13.14222 12.439376
107 1 1 0.0 8.528001 17.648124 7.12472
108 1 1 0.0 14.545501 22.96278 11.630624
109 1 1 0.0 3.506999 6.421876 19.15972
110 1 1 0.0 21.559499 1.10722 23.665624
111 1 1 0.0 15.541999 5.613124 4.91028
112 1 1 0.0 9.524499 10.92778 0.404376
113 1 1 0.0 11.630624 14.545501 22.96278
114 1 1 0.0 16.94528 20.563001 18.456876
115 1 1 0.0 12.439376 2.510501 13.14222
116 1 1 0.0 7.12472 8.528001 17.648124
117 1 1 0.0 23.665624 21.559499 1.10722
118 1 1 0.0 4.91028 15.541999 5.613124
119 1 1 0.0 0.404376 9.524499 10.92778
120 1 1 0.0 19.15972 3.506999 6.421876
121 1 1 0.0 16.548125 19.020114 20.189916
122 1 1 0.0 11.067386 10.530625 2.137416
123 1 1 0.0 19.556875 5.049886 8.154916
124 1 1 0.0 0.967614 13.539375 14.172416
125 1 1 0.0 4.513125 17.084886 3.880084
126 1 1 0.0 23.102386 1.504375 21.932584
127 1 1 0.0 7.521875 6.985114 15.915084
128 1 1 0.0 13.002614 22.565625 9.897584
129 1 1 0.0 20.189916 16.548125 19.020114
130 1 1 0.0 2.137416 11.067386 10.530625
131 1 1 0.0 8.154916 19.556875 5.049886
132 1 1 0.0 14.172416 0.967614 13.539375
133 1 1 0.0 3.880084 4.513125 17.084886
134 1 1 0.0 21.932584 23.102386 1.504375
135 1 1 0.0 15.915084 7.521875 6.985114
136 1 1 0.0 9.897584 13.002614 22.565625
137 1 1 0.0 13.539375 14.172416 0.967614
138 1 1 0.0 19.020114 20.189916 16.548125
139 1 1 0.0 10.530625 2.137416 11.067386
140 1 1 0.0 5.049886 8.154916 19.556875
141 1 1 0.0 1.504375 21.932584 23.102386
142 1 1 0.0 6.985114 15.915084 7.521875
143 1 1 0.0 22.565625 9.897584 13.002614
144 1 1 0.0 17.084886 3.880084 4.513125
145 1 1 0.0 23.225143 21.990352 23.908731
146 1 1 0.0 8.097148 17.207643 5.856231
147 1 1 0.0 12.879857 2.079648 11.873731
148 1 1 0.0 3.937852 6.862357 17.891231
149 1 1 0.0 11.190143 14.114648 0.161269
150 1 1 0.0 20.132148 18.897357 18.213769
151 1 1 0.0 0.844857 9.955352 12.196269
152 1 1 0.0 15.972852 5.172643 6.178769
153 1 1 0.0 23.908731 23.225143 21.990352
154 1 1 0.0 5.856231 8.097148 17.207643
155 1 1 0.0 11.873731 12.879857 2.079648
156 1 1 0.0 17.891231 3.937852 6.862357
157 1 1 0.0 0.161269 11.190143 14.114648
158 1 1 0.0 18.213769 20.132148 18.897357
159 1 1 0.0 12.196269 0.844857 9.955352
160 1 1 0.0 6.178769 15.972852 5.172643
161 1 1 0.0 6.862357 17.891231 3.937852
162 1 1 0.0 21.990352 23.908731 23.225143
163 1 1 0.0 17.207643 5.856231 8.097148
164 1 1 0.0 2.079648 11.873731 12.879857
165 1 1 0.0 18.897357 18.213769 20.132148
166 1 1 0.0 9.955352 12.196269 0.844857
167 1 1 0.0 5.172643 6.178769 15.972852
168 1 1 0.0 14.114648 0.161269 11.190143
169 1 1 0.0 17.166724 16.791232 21.008296
170 1 1 0.0 13.296268 11.149224 2.955796
171 1 1 0.0 18.938276 7.278768 8.973296
172 1 1 0.0 22.808732 12.920776 14.990796
173 1 1 0.0 5.131724 19.313768 3.061704
174 1 1 0.0 1.261268 0.885776 21.114204
175 1 1 0.0 6.903276 4.756232 15.096704
176 1 1 0.0 10.773732 23.184224 9.079204
177 1 1 0.0 21.008296 17.166724 16.791232
178 1 1 0.0 2.955796 13.296268 11.149224
179 1 1 0.0 8.973296 18.938276 7.278768
180 1 1 0.0 14.990796 22.808732 12.920776
181 1 1 0.0 3.061704 5.131724 19.313768
182 1 1 0.0 21.114204 1.261268 0.885776
183 1 1 0.0 15.096704 6.903276 4.756232
184 1 1 0.0 9.079204 10.773732 23.184224
185 1 1 0.0 12.920776 14.990796 22.808732
186 1 1 0.0 16.791232 21.008296 17.166724
187 1 1 0.0 11.149224 2.955796 13.296268
188 1 1 0.0 7.278768 8.973296 18.938276
189 1 1 0.0 0.885776 21.114204 1.261268
190 1 1 0.0 4.756232 15.096704 6.903276
191 1 1 0.0 23.184224 9.079204 10.773732
192 1 1 0.0 19.313768 3.061704 5.131724
193 1 1 0.0 16.163005 17.814207 20.729084
194 1 1 0.0 12.273293 10.145505 2.676584
195 1 1 0.0 19.941995 6.255793 8.694084
196 1 1 0.0 23.831707 13.924495 14.711584
197 1 1 0.0 4.128005 18.290793 3.340916
198 1 1 0.0 0.238293 1.889495 21.393416
199 1 1 0.0 7.906995 5.779207 15.375916
200 1 1 0.0 11.796707 22.180505 9.358416
201 1 1 0.0 20.729084 16.163005 17.814207
202 1 1 0.0 2.676584 12.273293 10.145505
203 1 1 0.0 8.694084 19.941995 6.255793
204 1 1 0.0 14.711584 23.831707 13.924495
205 1 1 0.0 3.340916 4.128005 18.290793
206 1 1 0.0 21.393416 0.238293 1.889495
207 1 1 0.0 15.375916 7.906995 5.779207
208 1 1 0.0 9.358416 11.796707 22.180505
209 1 1 0.0 13.924495 14.711584 23.831707
210 1 1 0.0 17.814207 20.729084 16.163005
211 1 1 0.0 10.145505 2.676584 12.273293
212 1 1 0.0 6.255793 8.694084 19.941995
213 1 1 0.0 1.889495 21.393416 0.238293
214 1 1 0.0 5.779207 15.375916 7.906995
215 1 1 0.0 22.180505 9.358416 11.796707
216 1 1 0.0 18.290793 3.340916 4.128005
217 1 1 0.0 19.299326 15.891014 20.033461
218 1 1 0.0 14.196486 13.281826 1.980961
219 1 1 0.0 16.805674 8.178986 7.998461
220 1 1 0.0 21.908514 10.788174 14.015961
221 1 1 0.0 7.264326 20.213986 4.036539
222 1 1 0.0 2.161486 22.823174 22.089039
223 1 1 0.0 4.770674 3.856014 16.071539
224 1 1 0.0 9.873514 1.246826 10.054039
225 1 1 0.0 20.033461 19.299326 15.891014
226 1 1 0.0 1.980961 14.196486 13.281826
227 1 1 0.0 7.998461 16.805674 8.178986
228 1 1 0.0 14.015961 21.908514 10.788174
229 1 1 0.0 4.036539 7.264326 20.213986
230 1 1 0.0 22.089039 2.161486 22.823174
231 1 1 0.0 16.071539 4.770674 3.856014
232 1 1 0.0 10.054039 9.873514 1.246826
233 1 1 0.0 10.788174 14.015961 21.908514
234 1 1 0.0 15.891014 20.033461 19.299326
235 1 1 0.0 13.281826 1.980961 14.196486
236 1 1 0.0 8.178986 7.998461 16.805674
237 1 1 0.0 22.823174 22.089039 2.161486
238 1 1 0.0 3.856014 16.071539 4.770674
239 1 1 0.0 1.246826 10.054039 9.873514
240 1 1 0.0 20.213986 4.036539 7.264326
241 1 1 0.0 14.793422 17.303923 20.813329
242 1 1 0.0 12.783577 8.775922 2.760829
243 1 1 0.0 21.311578 6.766077 8.778329
244 1 1 0.0 23.321423 15.294078 14.795829
245 1 1 0.0 2.758422 18.801077 3.256671
246 1 1 0.0 0.748577 3.259078 21.309171
247 1 1 0.0 9.276578 5.268923 15.291671
248 1 1 0.0 11.286423 20.810922 9.274171
249 1 1 0.0 20.813329 14.793422 17.303923
250 1 1 0.0 2.760829 12.783577 8.775922
251 1 1 0.0 8.778329 21.311578 6.766077
252 1 1 0.0 14.795829 23.321423 15.294078
253 1 1 0.0 3.256671 2.758422 18.801077
254 1 1 0.0 21.309171 0.748577 3.259078
255 1 1 0.0 15.291671 9.276578 5.268923
256 1 1 0.0 9.274171 11.286423 20.810922
257 1 1 0.0 15.294078 14.795829 23.321423
258 1 1 0.0 17.303923 20.813329 14.793422
259 1 1 0.0 8.775922 2.760829 12.783577
260 1 1 0.0 6.766077 8.778329 21.311578
261 1 1 0.0 3.259078 21.309171 0.748577
262 1 1 0.0 5.268923 15.291671 9.276578
263 1 1 0.0 20.810922 9.274171 11.286423
264 1 1 0.0 18.801077 3.256671 2.758422
265 1 1 0.0 16.880291 15.47701 21.487289
266 1 1 0.0 14.61049 10.862791 3.434789
267 1 1 0.0 19.224709 8.59299 9.452289
268 1 1 0.0 21.49451 13.207209 15.469789
269 1 1 0.0 4.845291 20.62799 2.582711
270 1 1 0.0 2.57549 1.172209 20.635211
271 1 1 0.0 7.189709 3.44201 14.617711
272 1 1 0.0 9.45951 22.897791 8.600211
273 1 1 0.0 21.487289 16.880291 15.47701
274 1 1 0.0 3.434789 14.61049 10.862791
275 1 1 0.0 9.452289 19.224709 8.59299
276 1 1 0.0 15.469789 21.49451 13.207209
277 1 1 0.0 2.582711 4.845291 20.62799
278 1 1 0.0 20.635211 2.57549 1.172209
279 1 1 0.0 14.617711 7.189709 3.44201
280 1 1 0.0 8.600211 9.45951 22.897791
281 1 1 0.0 13.207209 15.469789 21.49451
282 1 1 0.0 15.47701 21.487289 16.880291
283 1 1 0.0 10.862791 3.434789 14.61049
284 1 1 0.0 8.59299 9.452289 19.224709
285 1 1 0.0 1.172209 20.635211 2.57549
286 1 1 0.0 3.44201 14.617711 7.189709
287 1 1 0.0 22.897791 8.600211 9.45951
288 1 1 0.0 20.62799 2.582711 4.845291
289 1 2 0.0 13.450316 21.598011 17.551844
290 1 2 0.0 8.489489 7.432816 23.569344
291 1 2 0.0 22.654684 2.471989 5.516844
292 1 2 0.0 3.545511 16.637184 11.534344
293 1 2 0.0 1.415316 14.506989 6.518156
294 1 2 0.0 20.524489 4.602184 0.500656
295 1 2 0.0 10.619684 9.563011 18.553156
296 1 2 0.0 15.580511 19.467816 12.535656
297 1 2 0.0 17.551844 13.450316 21.598011
298 1 2 0.0 23.569344 8.489489 7.432816
299 1 2 0.0 5.516844 22.654684 2.471989
300 1 2 0.0 11.534344 3.545511 16.637184
301 1 2 0.0 6.518156 1.415316 14.506989
302 1 2 0.0 0.500656 20.524489 4.602184
303 1 2 0.0 18.553156 10.619684 9.563011
304 1 2 0.0 12.535656 15.580511 19.467816
305 1 2 0.0 16.637184 11.534344 3.545511
306 1 2 0.0 21.598011 17.551844 13.450316
307 1 2 0.0 7.432816 23.569344 8.489489
308 1 2 0.0 2.471989 5.516844 22.654684
309 1 2 0.0 4.602184 0.500656 20.524489
310 1 2 0.0 9.563011 18.553156 10.619684
311 1 2 0.0 19.467816 12.535656 15.580511
312 1 2 0.0 14.506989 6.518156 1.415316
313 1 2 0.0 13.748784 20.127334 19.499107
314 1 2 0.0 9.960166 7.731284 1.446607
315 1 2 0.0 22.356216 3.942666 7.464107
316 1 2 0.0 2.074834 16.338716 13.481607
317 1 2 0.0 1.713784 15.977666 4.570893
318 1 2 0.0 21.995166 4.303716 22.623393
319 1 2 0.0 10.321216 8.092334 16.605893
320 1 2 0.0 14.109834 19.766284 10.588393
321 1 2 0.0 19.499107 13.748784 20.127334
322 1 2 0.0 1.446607 9.960166 7.731284
323 1 2 0.0 7.464107 22.356216 3.942666
324 1 2 0.0 13.481607 2.074834 16.338716
325 1 2 0.0 4.570893 1.713784 15.977666
326 1 2 0.0 22.623393 21.995166 4.303716
327 1 2 0.0 16.605893 10.321216 8.092334
328 1 2 0.0 10.588393 14.109834 19.766284
329 1 2 0.0 16.338716 13.481607 2.074834
330 1 2 0.0 20.127334 19.499107 13.748784
331 1 2 0.0 7.731284 1.446607 9.960166
332 1 2 0.0 3.942666 7.464107 22.356216
333 1 2 0.0 4.303716 22.623393 21.995166
334 1 2 0.0 8.092334 16.605893 10.321216
335 1 2 0.0 19.766284 10.588393 14.109834
336 1 2 0.0 15.977666 4.570893 1.713784
337 1 2 0.0 14.003926 17.898452 20.336743
338 1 2 0.0 12.189048 7.986426 2.284243
339 1 2 0.0 22.101074 6.171548 8.301743
340 1 2 0.0 23.915952 16.083574 14.319243
341 1 2 0.0 1.968926 18.206548 3.733257
342 1 2 0.0 0.154048 4.048574 21.785757
343 1 2 0.0 10.066074 5.863452 15.768257
344 1 2 0.0 11.880952 20.021426 9.750757
345 1 2 0.0 20.336743 14.003926 17.898452
346 1 2 0.0 2.284243 12.189048 7.986426
347 1 2 0.0 8.301743 22.101074 6.171548
348 1 2 0.0 14.319243 23.915952 16.083574
349 1 2 0.0 3.733257 1.968926 18.206548
350 1 2 0.0 21.785757 0.154048 4.048574
351 1 2 0.0 15.768257 10.066074 5.863452
352 1 2 0.0 9.750757 11.880952 20.021426
353 1 2 0.0 16.083574 14.319243 23.915952
354 1 2 0.0 17.898452 20.336743 14.003926
355 1 2 0.0 7.986426 2.284243 12.189048
356 1 2 0.0 6.171548 8.301743 22.101074
357 1 2 0.0 4.048574 21.785757 0.154048
358 1 2 0.0 5.863452 15.768257 10.066074
359 1 2 0.0 20.021426 9.750757 11.880952
360 1 2 0.0 18.206548 3.733257 1.968926
