LAMMPS (22 Dec 2022)
OMP_NUM_THREADS environment is not set. Defaulting to 1 thread. (src/comm.cpp:98)
  using 1 OpenMP thread(s) per MPI task
Loaded 1 plugins from C:\Program Files\LAMMPS 64-bit 23Jun2022\plugins
Loaded 0 plugins from C:\Program Files\LAMMPS 64-bit 23Jun2022-MPI\plugins
Loaded 1 plugins from C:\Program Files\LAMMPS 64-bit 22Dec2022-MSMPI\plugins
Loaded 1 plugins from C:\Program Files\LAMMPS 64-bit 28Mar2023-MPI\plugins
#-------------------- Initialization -----------------------------------------------------
clear
OMP_NUM_THREADS environment is not set. Defaulting to 1 thread. (src/comm.cpp:98)
  using 1 OpenMP thread(s) per MPI task
Loaded 1 plugins from C:\Program Files\LAMMPS 64-bit 23Jun2022\plugins
Loaded 0 plugins from C:\Program Files\LAMMPS 64-bit 23Jun2022-MPI\plugins
Loaded 1 plugins from C:\Program Files\LAMMPS 64-bit 22Dec2022-MSMPI\plugins
Loaded 1 plugins from C:\Program Files\LAMMPS 64-bit 28Mar2023-MPI\plugins
echo            both    # echoes each input script command to both log file and screen
#-----------------------------------------------------------------------------------------
units           metal   # determines units of all quantities used in the input file
atom_style      full
boundary        p p p   # periodic boundary condition
#-----------------------------------------------------------------------------------------
variable Tini equal 273+30   # [K] (Initial temperature)
variable Tfin equal 273+30   # [K] (Annealing temperature)

variable Pfin index   13.0   # [bar] (Note 1.0 bar = 0.1 MPa)

variable Nout equal    100   # every 100 time steps to the specified file

variable   natom index 5
variable   nmove index 5
variable   mu    index -5.46 # Fermi Energy (eV) from MOPAC2016 PM7
variable   disp  index 0.01

variable   tfac  equal 5.0/3.0 # (3 trans + 2 rot)/(3 trans) for molecular (2 atoms)
# trans = 3, rot = 2 (line), rot = 3 (non-line), vib = 3n-5 (line), vib = 3n-6 (non-line)
# total = 3n = 3+2+3n-5 = 3+3+3n-6
# vib = about 0.0 at R.T. for molecular (2 atoms)

#-------------------- Atom & Lattice description ----------------------------------------
read_data       data.lammps
Reading data file ...
  orthogonal box = (0 0 0) to (24.07 24.07 24.07)
  1 by 1 by 1 MPI processor grid
  reading atoms ...
  360 atoms
Finding 1-2 1-3 1-4 neighbors ...
  special bond factors lj:    0        0        0       
  special bond factors coul:  0        0        0       
     0 = max # of 1-2 neighbors
     0 = max # of 1-3 neighbors
     0 = max # of 1-4 neighbors
     1 = max # of special neighbors
  special bonds CPU = 0.000 seconds
  read_data CPU = 0.002 seconds

replicate 1 1 1
Replication is creating a 1x1x1 = 1 times larger system...
  orthogonal box = (0 0 0) to (24.07 24.07 24.07)
  1 by 1 by 1 MPI processor grid
  360 atoms
Finding 1-2 1-3 1-4 neighbors ...
  special bond factors lj:    0        0        0       
  special bond factors coul:  0        0        0       
     0 = max # of 1-2 neighbors
     0 = max # of 1-3 neighbors
     0 = max # of 1-4 neighbors
     1 = max # of special neighbors
  special bonds CPU = 0.000 seconds
  replicate CPU = 0.001 seconds

molecule        my_one_gas ./molecular_files/H2_one.txt
Read molecule template my_one_gas:
  1 molecules
  0 fragments
  1 atoms with max type 3
  0 bonds with max type 0
  0 angles with max type 0
  0 dihedrals with max type 0
  0 impropers with max type 0
group           gas type 3
0 atoms in group gas
variable        atoms_of_gas equal 0.5 # The number of atoms per gas molecule

mass 1 12.0107 # C
mass 2 1.00794 # H
mass 3 2.016   # H2

variable elem string "C H H2" # specifies the potential file used

# set overlap_cutoff
variable overlap_cutoff_value equal 1.0

#-------------------- Force field --------------------------------------------------------
# case 1, Lennard-Jones (LJ) potential
#pair_style hybrid airebo 3.0 1 0 lj/cut 10.2
#pair_coeff * * airebo ./potentials/CH.airebo C H NULL
#pair_coeff 1 3 lj/cut 0.003795 3.194 #   C-H2
#pair_coeff 2 3 lj/cut 0.002456 2.764 #   H-H2
#pair_coeff 3 3 lj/cut 0.003162 2.958 #  H2-H2

# case 2, Feynman-Hibbs effective (FHE) potential
pair_style hybrid airebo 3.0 1 0 table linear 1000
pair_coeff * * airebo ./potentials/CH.airebo C H NULL
Reading airebo potential file ./potentials/CH.airebo with DATE: 2011-10-25
pair_coeff 1 3 table  ./potentials/fhe_C-h2_303K.txt ENTRY
Reading pair table potential file ./potentials/fhe_C-h2_303K.txt with DATE: 2024-07-07
WARNING: 1166 of 1200 force values in table ENTRY are inconsistent with -dE/dr.
WARNING:  Should only be flagged at inflection points (src/pair_table.cpp:466)
pair_coeff 2 3 table  ./potentials/fhe_H-h2_303K.txt ENTRY
Reading pair table potential file ./potentials/fhe_H-h2_303K.txt with DATE: 2024-07-07
WARNING: 1152 of 1200 force values in table ENTRY are inconsistent with -dE/dr.
WARNING:  Should only be flagged at inflection points (src/pair_table.cpp:466)
pair_coeff 3 3 table  ./potentials/fhe_h2-h2_303K.txt ENTRY
Reading pair table potential file ./potentials/fhe_h2-h2_303K.txt with DATE: 2024-07-07
WARNING: 1161 of 1200 force values in table ENTRY are inconsistent with -dE/dr.
WARNING:  Should only be flagged at inflection points (src/pair_table.cpp:466)

#-------------------- Energy Minimization (failed) ---------------------------------------
# Note: ERROR: Fix gcmc region extends outside simulation box (../fix_gcmc.cpp:486)
# 0 [K], structure optimization
#fix             emin all box/relax x 0.0 y 0.0 z 0.0
#fix             emin all box/relax aniso 0.0
#fix             emin all box/relax iso ${Pfin}
#min_style       cg
#min_modify      dmax 0.2
#min_modify      line quadratic
#minimize        1.0e-4 1.0e-6 100 1000
#unfix           emin

#-------------------- Settings -----------------------------------------------------------
reset_timestep 0

timestep 0.0005  # 0.5 [fs] (Recommend 0.1-1.0 [fs]), sets the timestep for subsequent simulations

variable        ngas equal count(gas)/${atoms_of_gas} # The number of molecules (e.g., H2, N2, CO2, H2O, He, Ar, Kr, etc)
variable        ngas equal count(gas)/0.5 

variable        wtp  equal mass(gas)/mass(all)*100 # Mass Percent Concentration, wt.% [dimensionless] (Absolute, Not excess)

#variable        molc equal (v_ngas/6.022e23)/(vol*1e-30) # molar concentration [mol/m^3] (Absolute, Not excess)
variable        molL equal (v_ngas/6.022e23)/(vol*1e-27) # molar concentration [mol/L] = [mol/dm^3] (Absolute, Not excess)

variable        mc   equal (mass(gas)/6.022e23/1000)/(vol*1e-30) # Mass Concentration [kg/m^3] (Absolute, Not excess)

thermo ${Nout}   # computes and prints thermodynamic
thermo 100   
thermo_style custom step temp vol press etotal v_ngas v_wtp v_molL v_mc # specifies content of thermodynamic data to be printed in screen

#---------- output file settings --------------------------------------
dump            d1 all cfg ${Nout} cfg/run.*.cfg mass type xs ys zs id type vx vy vz fx fy fz
dump            d1 all cfg 100 cfg/run.*.cfg mass type xs ys zs id type vx vy vz fx fy fz
dump_modify     d1 element ${elem}
dump_modify     d1 element C H H2
#dump_modify     d1 sort id
#----------------------------------------------------------------------

velocity all create ${Tini} 12345 mom yes rot no # sets the velocity of a group of atoms
velocity all create 303 12345 mom yes rot no 

#-------------------- Run the simulation -------------------------------------------------
compute mdtemp all temp
compute_modify mdtemp dynamic/dof yes

## Equilibrium system, calculation settings
#fix f1 all nvt temp ${Tini} ${Tfin} $(20*dt)
fix f1 all npt temp ${Tini} ${Tfin} $(20*dt) iso 0.0 ${Pfin} $(200*dt)
fix f1 all npt temp 303 ${Tfin} $(20*dt) iso 0.0 ${Pfin} $(200*dt)
fix f1 all npt temp 303 303 $(20*dt) iso 0.0 ${Pfin} $(200*dt)
fix f1 all npt temp 303 303 0.010000000000000000208 iso 0.0 ${Pfin} $(200*dt)
fix f1 all npt temp 303 303 0.010000000000000000208 iso 0.0 13.0 $(200*dt)
fix f1 all npt temp 303 303 0.010000000000000000208 iso 0.0 13.0 0.10000000000000000555
fix_modify f1 temp mdtemp

# non-equilibrium system, calculation settings
#fix f1 all nve
#fix f2 all langevin ${Tini} ${Tfin} $(20*dt) 12345
#fix_modify f2 temp mdtemp

# GCMC
fix f3 gas gcmc ${Nout} ${natom} ${nmove} 0 12345 ${Tfin} ${mu} ${disp} mol my_one_gas pressure ${Pfin} tfac_insert ${tfac} full_energy overlap_cutoff ${overlap_cutoff_value}
fix f3 gas gcmc 100 ${natom} ${nmove} 0 12345 ${Tfin} ${mu} ${disp} mol my_one_gas pressure ${Pfin} tfac_insert ${tfac} full_energy overlap_cutoff ${overlap_cutoff_value}
fix f3 gas gcmc 100 5 ${nmove} 0 12345 ${Tfin} ${mu} ${disp} mol my_one_gas pressure ${Pfin} tfac_insert ${tfac} full_energy overlap_cutoff ${overlap_cutoff_value}
fix f3 gas gcmc 100 5 5 0 12345 ${Tfin} ${mu} ${disp} mol my_one_gas pressure ${Pfin} tfac_insert ${tfac} full_energy overlap_cutoff ${overlap_cutoff_value}
fix f3 gas gcmc 100 5 5 0 12345 303 ${mu} ${disp} mol my_one_gas pressure ${Pfin} tfac_insert ${tfac} full_energy overlap_cutoff ${overlap_cutoff_value}
fix f3 gas gcmc 100 5 5 0 12345 303 -5.46 ${disp} mol my_one_gas pressure ${Pfin} tfac_insert ${tfac} full_energy overlap_cutoff ${overlap_cutoff_value}
fix f3 gas gcmc 100 5 5 0 12345 303 -5.46 0.01 mol my_one_gas pressure ${Pfin} tfac_insert ${tfac} full_energy overlap_cutoff ${overlap_cutoff_value}
fix f3 gas gcmc 100 5 5 0 12345 303 -5.46 0.01 mol my_one_gas pressure 13.0 tfac_insert ${tfac} full_energy overlap_cutoff ${overlap_cutoff_value}
fix f3 gas gcmc 100 5 5 0 12345 303 -5.46 0.01 mol my_one_gas pressure 13.0 tfac_insert 1.66666666666667 full_energy overlap_cutoff ${overlap_cutoff_value}
fix f3 gas gcmc 100 5 5 0 12345 303 -5.46 0.01 mol my_one_gas pressure 13.0 tfac_insert 1.66666666666667 full_energy overlap_cutoff 1

run             20000 # 10 ps
0 atoms in group FixGCMC:gcmc_exclusion_group:f3
0 atoms in group FixGCMC:rotation_gas_atoms:f3
Neighbor list info ...
  update: every = 1 steps, delay = 0 steps, check = yes
  max neighbors/atom: 2000, page size: 100000
  master list distance cutoff = 14.99
  ghost atom cutoff = 14.99
  binsize = 7.495, bins = 4 4 4
  4 neighbor lists, perpetual/occasional/extra = 4 0 0
  (1) pair airebo, perpetual, skip from (3)
      attributes: full, newton on, ghost, cut 12.2
      pair build: skip/ghost
      stencil: none
      bin: none
  (2) pair table, perpetual, skip from (4)
      attributes: half, newton on
      pair build: skip
      stencil: none
      bin: none
  (3) neighbor class addition, perpetual
      attributes: full, newton on, ghost, cut 12.2
      pair build: full/bin/ghost
      stencil: full/ghost/bin/3d
      bin: standard
  (4) neighbor class addition, perpetual
      attributes: half, newton on
      pair build: half/bin/newton
      stencil: half/bin/3d
      bin: standard
Per MPI rank memory allocation (min/avg/max) = 11.04 | 11.04 | 11.04 Mbytes
   Step          Temp          Volume         Press          TotEng         v_ngas         v_wtp          v_molL          v_mc     
         0   303            13945.313     -5685.9335     -2305.6824      0              0              0              0            
       100   331.70377      14198.349     -3532.1692     -2302.8412      0              0              0              0            
       200   288.02575      14511.386     -2547.9389     -2303.2431      0              0              0              0            
       300   308.68958      14232.085     -483.19855     -2302.7915      6              0.17095847     0.70007082     0.70567138   
       400   329.3731       14067.125      611.84286     -2304.0212      2              0.057051179    0.23609343     0.23798218   
       500   276.1947       13544.292     -371.01466     -2305.189       6              0.17095847     0.73562112     0.74150609   
       600   298.15822      13224.092      1999.9212     -2304.6733      4              0.1140373      0.50228868     0.50630699   
       700   278.78146      13029.48      -1636.077      -2304.981       6              0.17095847     0.76468651     0.770804     
       800   339.26715      12933.026      480.31784     -2304.2158      6              0.17095847     0.77038949     0.7765526    
       900   312.5006       12836.025     -680.83333     -2304.5298      6              0.17095847     0.77621128     0.78242097   
      1000   290.63722      12814.42      -57.305998     -2304.6921      4              0.1140373      0.51834663     0.5224934    
      1100   296.91814      12533.602      335.99271     -2306.7687      8              0.2278148      1.0599206      1.0684       
      1200   304.13039      11938.933     -1338.2053     -2307.393       4              0.1140373      0.55635722     0.56080808   
      1300   304.64506      11284.175      862.43363     -2307.7286      8              0.2278148      1.1772791      1.1866973    
      1400   313.20973      10817.891      149.2001      -2307.0995      0              0              0              0            
      1500   290.63122      10513.952      602.33987     -2310.0741      2              0.057051179    0.31588083     0.31840787   
      1600   294.71194      10327.182      1447.7467     -2310.6082      6              0.17095847     0.96478084     0.97249908   
      1700   292.94774      9958.9261      659.21169     -2311.1449      8              0.2278148      1.3339413      1.3446128    
      1800   313.80297      9509.3726      737.42994     -2309.4318      10             0.28460641     1.7462539      1.7602239    
      1900   306.8815       9423.5136     -398.02044     -2306.9582      12             0.3413334      2.1145971      2.1315139    
      2000   279.93188      9504.4532      2235.9316     -2307.7629      6              0.17095847     1.0482946      1.056681     
      2100   301.90439      9637.8507      659.17353     -2305.2517      10             0.28460641     1.7229753      1.7367591    
      2200   323.34618      9480.554       2895.8392     -2307.0978      12             0.3413334      2.1018745      2.1186895    
      2300   345.51206      9522.9513      2193.9193     -2307.3294      12             0.3413334      2.0925167      2.1092568    
      2400   325.20198      9550.4539      7180.0325     -2309.3842      14             0.39799589     2.4342393      2.4537132    
      2500   306.67289      9963.4968      5131.0295     -2309.4402      16             0.45459398     2.6666588      2.687992     
      2600   303.66918      10185.574      2435.2458     -2309.6902      12             0.3413334      1.9563881      1.9720392    
      2700   333.26512      10774.666      993.1561      -2306.4906      16             0.45459398     2.4658997      2.4856269    
      2800   332.47362      11184.316     -1337.3508     -2305.4771      14             0.39799589     2.0786332      2.0952622    
      2900   316.77903      11594.796     -1507.5661     -2306.2436      10             0.28460641     1.4321751      1.4436325    
      3000   291.90868      11690.613      986.64376     -2305.7575      6              0.17095847     0.85226221     0.8590803    
      3100   335.91724      11796.708     -686.10382     -2303.882       8              0.2278148      1.1261297      1.1351387    
      3200   296.9295       11877.118      1426.3173     -2306.7165      8              0.2278148      1.1185056      1.1274536    
      3300   295.38642      11956.97      -463.18031     -2306.3654      8              0.2278148      1.111036       1.1199242    
      3400   314.67524      12269.477     -525.61715     -2305.4135      8              0.2278148      1.0827375      1.0913994    
      3500   315.53447      12248.375     -661.7173      -2305.0186      10             0.28460641     1.3557536      1.3665996    
      3600   289.49949      12366.1       -982.00027     -2304.771       12             0.3413334      1.6114163      1.6243076    
      3700   313.81103      12273.644      1189.3387     -2305.6044      16             0.45459398     2.1647398      2.1820578    
      3800   292.76768      12174.574     -63.9382       -2305.8578      16             0.45459398     2.1823553      2.1998141    
      3900   298.42955      11895.206      776.71966     -2305.5486      20             0.5675974      2.7920119      2.814348     
      4000   288.55174      11785.838     -979.22501     -2306.7838     