# LAMMPS data file

360 atoms
5 atom types

0.0 24.0699996948 xlo xhi
0.0 24.0699996948 ylo yhi
0.0 24.0699996948 zlo zhi

Atoms  # atomic

1 1 17.766066589 14.461255282 21.229740431
2 1 18.338932953 9.608744413 9.194740584
3 1 6.303933106 2.426255434 14.875259111
4 1 5.731066741 21.64374426 2.840259264
5 1 21.229740431 17.766066589 14.461255282
6 1 14.875259111 6.303933106 2.426255434
7 1 2.840259264 5.731066741 21.64374426
8 1 9.194740584 18.338932953 9.608744413
9 1 14.461255282 21.229740431 17.766066589
10 1 21.64374426 2.840259264 5.731066741
11 1 9.608744413 9.194740584 18.338932953
12 1 2.426255434 14.875259111 6.303933106
13 1 8.443756075 23.783566513 8.857759905
14 1 3.591243772 0.286433182 20.89276047
15 1 15.626242902 11.748566665 3.177239943
16 1 20.47875664 12.32143303 15.212239073
17 1 11.748566665 3.177239943 15.626244337
18 1 0.286433182 20.89276047 3.591244489
19 1 12.32143303 15.212239073 20.478755206
20 1 23.783566513 8.857759905 8.443755358
21 1 15.212240507 20.478755206 12.32143303
22 1 20.892759035 3.591244489 0.286433182
23 1 8.857759188 8.443755358 23.783566513
24 1 3.17724066 15.626244337 11.748566665
25 1 18.940682372 14.636966743 20.420987663
26 1 17.16431717 9.433032952 8.385987816
27 1 5.129317323 2.601966896 15.684011879
28 1 6.905682525 21.468032799 3.649012032
29 1 20.420987663 18.940682372 14.636966743
30 1 15.684011879 5.129317323 2.601966896
31 1 3.649012032 6.905682525 21.468032799
32 1 8.385987816 17.16431717 9.433032952
33 1 14.636966743 20.420987663 18.940682372
34 1 21.468032799 3.649012032 6.905682525
35 1 9.433032952 8.385987816 17.16431717
36 1 2.601966896 15.684011879 5.129317323
37 1 8.61946682 0.888182959 9.666511955
38 1 3.415533028 23.181817094 21.701511803
39 1 15.450532875 12.923182448 2.368487892
40 1 20.654466667 11.146817247 14.403487739
41 1 12.923182448 2.368487892 15.450532875
42 1 23.181817094 21.701511803 3.415533028
43 1 11.146817247 14.403487739 20.654466667
44 1 0.888182601 9.666511955 8.61946682
45 1 14.403487739 20.654466667 11.146816529
46 1 21.701511803 3.415533028 23.181815659
47 1 9.666511955 8.61946682 0.888183318
48 1 2.368487892 15.450532875 12.923183883
49 1 14.793421879 17.30392338 20.813329202
50 1 21.311577663 6.766076315 8.778329355
51 1 9.276577816 5.268923532 15.29167034
52 1 2.758422032 18.801076163 3.256670493
53 1 20.813329202 14.793421879 17.30392338
54 1 15.29167034 9.276577816 5.268923532
55 1 3.256670493 2.758422032 18.801076163
56 1 8.778329355 21.311577663 6.766076315
57 1 17.30392338 20.813329202 14.793421879
58 1 18.801076163 3.256670493 2.758422032
59 1 6.766076315 8.778329355 21.311577663
60 1 5.268923532 15.29167034 9.276577816
61 1 11.286422739 20.810921803 9.274171134
62 1 0.748577109 3.259077892 21.309171699
63 1 12.783577673 8.775921955 2.760828714
64 1 23.321421869 15.29407774 14.795827844
65 1 8.775921955 2.760828893 12.783576239
66 1 3.259077892 21.309170264 0.748576391
67 1 15.29407774 14.795829278 23.321423303
68 1 20.810921803 9.274171134 11.286423456
69 1 14.795829278 23.321423303 15.29407774
70 1 21.309170264 0.748576391 3.259077892
71 1 9.274170416 11.286423456 20.810921803
72 1 2.760829431 12.783576239 8.775921955
73 1 15.558847197 15.38313717 22.141992722
74 1 20.546152346 8.686862525 10.106992874
75 1 8.511152498 3.348137323 13.963006821
76 1 3.523847349 20.721862372 1.928006973
77 1 22.141992722 15.558847197 15.38313717
78 1 13.963006821 8.511152498 3.348137323
79 1 1.928006973 3.523847349 20.721862372
80 1 10.106992874 20.546152346 8.686862525
81 1 15.38313717 22.141992722 15.558847197
82 1 20.721862372 1.928006973 3.523847349
83 1 8.686862525 10.106992874 20.546152346
84 1 3.348137323 13.963006821 8.511152498
85 1 9.365636529 21.57634712 7.945506897
86 1 2.669363319 2.493652574 19.980506744
87 1 14.704363883 9.541347273 4.08949295
88 1 21.400635659 14.528652422 16.124492798
89 1 9.54134799 4.08949295 14.704362449
90 1 2.493651857 19.980506744 2.669362601
91 1 14.528652422 16.124492798 21.400637094
92 1 21.57634712 7.945506897 9.365637246
93 1 16.124492798 21.400637094 14.528652422
94 1 19.980506744 2.669362601 2.493652574
95 1 7.945506897 9.365637246 21.57634712
96 1 4.08949295 14.704362449 9.541347273
97 1 17.985104066 19.217487391 19.980506744
98 1 18.119895476 4.852512303 7.945506897
99 1 6.084895629 7.182487544 16.124492798
100 1 5.950104218 16.887512151 4.08949295
101 1 19.980506744 17.985104066 19.217487391
102 1 16.124492798 6.084895629 7.182487544
103 1 4.08949295 5.950104218 16.887512151
104 1 7.945506897 18.119895476 4.852512303
105 1 13.199987468 24.00260399 10.106992874
106 1 22.905012075 0.067395705 22.141992722
107 1 10.870012227 11.967604142 1.928006973
108 1 1.16498762 12.102395553 13.963006821
109 1 11.967604142 1.928006973 10.87001151
110 1 0.067395705 22.141992722 22.90501064
111 1 12.102395553 13.963006821 1.164988338
112 1 24.00260399 10.106992874 13.199988902
113 1 18.456875438 16.945279693 20.563001272
114 1 17.648124105 7.124720001 8.528001424
115 1 5.613124257 4.910279846 15.54199827
116 1 6.42187559 19.159719849 3.506998423
117 1 20.563001272 18.456875438 16.945279693
118 1 15.54199827 5.613124257 4.910279846
119 1 3.506998423 6.42187559 19.159719849
120 1 8.528001424 17.648124105 7.124720001
121 1 16.945279693 20.563001272 18.456875438
122 1 19.159719849 3.506998423 6.42187559
123 1 7.124720001 8.528001424 17.648124105
124 1 4.910279846 15.54199827 5.613124257
125 1 10.92777977 0.40437598 9.524499064
126 1 1.107220078 23.665624028 21.559498194
127 1 13.142219925 12.439375514 2.510500783
128 1 22.962779617 11.630624181 14.545501348
129 1 12.439375514 2.510500963 13.142219925
130 1 23.665624028 21.559498194 1.107220078
131 1 11.630624181 14.545501348 22.962779617
132 1 0.404375667 9.524499064 10.92777977
133 1 14.545501348 22.962779617 11.630624181
134 1 21.559498194 1.107220078 23.665624028
135 1 9.524498347 10.92777977 0.404375667
136 1 2.510501501 13.142219925 12.439375514
137 1 16.54812479 19.020113639 20.189916059
138 1 19.556874752 5.049886055 8.154916211
139 1 7.521874905 6.985113792 15.915083484
140 1 4.513124943 17.084885903 3.880083636
141 1 20.189916059 16.54812479 19.020113639
142 1 15.915083484 7.521874905 6.985113792
143 1 3.880083636 4.513124943 17.084885903
144 1 8.154916211 19.556874752 5.049886055
145 1 19.020113639 20.189916059 16.54812479
146 1 17.084885903 3.880083636 4.513124943
147 1 5.049886055 8.154916211 19.556874752
148 1 6.985113792 15.915083484 7.521874905
149 1 13.002613716 22.565624714 9.89758356
150 1 23.102385826 1.504374981 21.932583407
151 1 11.067385979 10.530624866 2.137416287
152 1 0.967613868 13.539374828 14.172416135
153 1 10.530624866 2.137415929 11.067385979
154 1 1.504374981 21.932583407 23.102385826
155 1 13.539374828 14.172416135 0.967613868
156 1 22.565624714 9.89758356 13.002613716
157 1 14.172416135 0.967613958 13.539374828
158 1 21.932583407 23.102385826 1.504374981
159 1 9.89758356 13.002613716 22.565624714
160 1 2.137416287 11.067385979 10.530624866
161 1 23.22514311 21.990352385 23.908731195
162 1 12.879856433 2.07964731 11.873731348
163 1 0.844856585 9.955352537 12.196268347
164 1 11.190143262 14.114647158 0.1612685
165 1 23.908731195 23.22514311 21.990352385
166 1 12.196268347 0.844856585 9.955352537
167 1 0.1612685 11.190143262 14.114647158
168 1 11.873731348 12.879856433 2.07964731
169 1 21.990352385 23.908731195 23.22514311
170 1 14.114647158 0.1612685 11.190143262
171 1 2.07964731 11.873731348 12.879856433
172 1 9.955352537 12.196268347 0.844856585
173 1 15.972852461 5.17264298 6.178769141
174 1 20.132147081 18.897356356 18.213769706
175 1 8.097147234 17.207643186 5.856230707
176 1 3.937852613 6.862356509 17.891229837
177 1 17.207643186 5.856231065 8.097147951
178 1 18.897356356 18.213768271 20.132148516
179 1 6.862356509 17.891231271 3.937851896
180 1 5.172643338 6.178768424 15.972851026
181 1 17.891231271 3.937851896 6.862357226
182 1 18.213768271 20.132148516 18.897356356
183 1 6.178768424 15.972851026 5.172642621
184 1 5.856231424 8.097147951 17.207643186
185 1 17.166723135 16.791231957 21.008295555
186 1 18.938276407 7.278767738 8.973295707
187 1 6.90327656 4.75623211 15.096703988
188 1 5.131723288 19.313767585 3.06170414
189 1 21.008295555 17.166723135 16.791231957
190 1 15.096703988 6.90327656 4.75623211
191 1 3.06170414 5.131723288 19.313767585
192 1 8.973295707 18.938276407 7.278767738
193 1 16.791231957 21.008295555 17.166723135
194 1 19.313767585 3.06170414 5.131723288
195 1 7.278767738 8.973295707 18.938276407
196 1 4.75623211 15.096703988 6.90327656
197 1 10.773732033 23.184223059 9.079204064
198 1 1.261267814 0.885776636 21.114203911
199 1 13.296267662 11.149223211 2.955795783
200 1 22.808731881 12.920776484 14.990795631
201 1 11.149223929 2.955795963 13.296267662
202 1 0.885775919 21.114203911 1.261267814
203 1 12.920776484 14.990795631 22.808731881
204 1 23.184223059 9.079204064 10.773732033
205 1 14.990795631 22.808731881 12.920776484
206 1 21.114203911 1.261267814 0.885776636
207 1 9.079204064 10.773732033 23.184223059
208 1 2.955795783 13.296267662 11.149223211
209 1 16.163005449 17.814207403 20.729083136
210 1 19.941994093 6.255792292 8.694083288
211 1 7.906994246 5.779207556 15.375916406
212 1 4.128005602 18.290792139 3.340916559
213 1 20.729083136 16.163005449 17.814207403
214 1 15.375916406 7.906994246 5.779207556
215 1 3.340916559 4.128005602 18.290792139
216 1 8.694083288 19.941994093 6.255792292
217 1 17.814207403 20.729083136 16.163005449
218 1 18.290792139 3.340916559 4.128005602
219 1 6.255792292 8.694083288 19.941994093
220 1 5.779207556 15.375916406 7.906994246
221 1 11.796706762 22.180505373 9.358415765
222 1 0.238293085 1.889494322 21.39341633
223 1 12.273292215 10.145505526 2.676584082
224 1 23.831707327 13.924494169 14.711583212
225 1 10.145504808 2.676583903 12.273292215
226 1 1.889495039 21.39341633 0.238292368
227 1 13.924495604 14.711583212 23.831707327
228 1 22.180503938 9.358415765 11.796707479
229 1 14.711583212 23.831707327 13.924494169
230 1 21.39341633 0.238292368 1.889494322
231 1 9.358416483 11.796707479 22.180505373
232 1 2.676583365 12.273292215 10.145505526
233 1 19.299326058 15.891013794 20.033460923
234 1 16.805673484 8.178985901 7.998461075
235 1 4.770673637 3.856013947 16.071538619
236 1 7.264326211 20.213985748 4.036538772
237 1 20.033460923 19.299326058 15.891013794
238 1 16.071538619 4.770673637 3.856013947
239 1 4.036538772 7.264326211 20.213985748
240 1 7.998461075 16.805673484 8.178985901
241 1 15.891013794 20.033460923 19.299326058
242 1 20.213985748 4.036538772 7.264326211
243 1 8.178985901 7.998461075 16.805673484
244 1 3.856013947 16.071538619 4.770673637
245 1 9.87351387 1.246826018 10.054038696
246 1 2.161485977 22.823173408 22.089038543
247 1 14.196485825 13.281826135 1.980961152
248 1 21.908513718 10.78817356 14.015960999
249 1 13.281826135 1.980960972 14.196485825
250 1 22.823173408 22.089038543 2.161485977
251 1 10.78817356 14.015960999 21.908513718
252 1 1.246826287 10.054038696 9.87351387
253 1 14.015960999 21.908513718 10.78817356
254 1 22.089038543 2.161485977 22.823173408
255 1 10.054038696 9.87351387 1.246826287
256 1 1.980961152 14.196485825 13.281826135
257 1 16.880291387 15.477009964 21.487289125
258 1 19.224708155 8.59298973 9.452289277
259 1 7.189708307 3.442010117 14.617710418
260 1 4.84529154 20.627989578 2.58271057
261 1 21.487289125 16.880291387 15.477009964
262 1 14.617710418 7.189708307 3.442010117
263 1 2.58271057 4.84529154 20.627989578
264 1 9.452289277 19.224708155 8.59298973
265 1 15.477009964 21.487289125 16.880291387
266 1 20.627989578 2.58271057 4.84529154
267 1 8.59298973 9.452289277 19.224708155
268 1 3.442010117 14.617710418 7.189708307
269 1 9.459510041 22.897791311 8.600211211
270 1 2.575489807 1.172208384 20.635211776
271 1 14.610489654 10.862791464 3.434788636
272 1 21.494509888 13.207208231 15.469787766
273 1 10.862790746 3.434788995 14.610489654
274 1 1.172209101 20.635210341 2.575489807
275 1 13.207208231 15.469789201 21.494509888
276 1 22.897791311 8.600210494 9.459510041
277 1 15.469789201 21.494509888 13.207208231
278 1 20.635210341 2.575489807 1.172208384
279 1 8.600210494 9.459510041 22.897791311
280 1 3.434789354 14.610489654 10.862791464
281 2 13.450315398 21.598010846 17.551843911
282 2 22.654684144 2.471988849 5.516844063
283 2 10.619684297 9.563010998 18.553155632
284 2 1.415315551 14.506988697 6.518155784
285 2 17.551843911 13.450315398 21.598010846
286 2 18.553155632 10.619684297 9.563010998
287 2 6.518155784 1.415315551 14.506988697
288 2 5.516844063 22.654684144 2.471988849
289 2 21.598010846 17.551843911 13.450315398
290 2 14.506988697 6.518155784 1.415315551
291 2 2.471988849 5.516844063 22.654684144
292 2 9.563010998 18.553155632 10.619684297
293 2 15.580510922 19.467815322 12.535655708
294 2 20.52448862 4.602184373 0.500655861
295 2 8.489488773 7.432815474 23.569343834
296 2 3.545511074 16.637184221 11.534343987
297 2 7.432816192 23.569343834 8.489488773
298 2 4.602183656 0.500655861 20.52448862
299 2 16.637184221 11.534343987 3.545511074
300 2 19.467815322 12.535655708 15.580510922
301 2 11.534343987 3.545511074 16.637184221
302 2 0.500655861 20.52448862 4.602184373
303 2 12.535655708 15.580510922 19.467815322
304 2 23.569343834 8.489488773 7.432815474
305 2 13.748784142 20.127333717 19.49910721
306 2 22.3562154 3.942665978 7.464107362
307 2 10.321215552 8.09233387 16.605892333
308 2 1.713784295 15.977665825 4.570892485
309 2 19.49910721 13.748784142 20.127333717
310 2 16.605892333 10.321215552 8.09233387
311 2 4.570892485 1.713784295 15.977665825
312 2 7.464107362 22.3562154 3.942665978
313 2 20.127333717 19.49910721 13.748784142
314 2 15.977665825 4.570892485 1.713784295
315 2 3.942665978 7.464107362 22.3562154
316 2 8.09233387 16.605892333 10.321215552
317 2 14.109833794 19.766284066 10.588393126
318 2 21.995165749 4.303715629 22.623393691
319 2 9.960165901 7.731284219 1.446606721
320 2 2.074833946 16.338715476 13.481605851
321 2 7.731284219 1.44660699 9.960165901
322 2 4.303715629 22.623392256 21.995165749
323 2 16.338715476 13.481607286 2.074833946
324 2 19.766284066 10.588393126 14.109833794
325 2 13.481607286 2.074833946 16.338715476
326 2 22.623392256 21.995165749 4.303715629
327 2 10.588392409 14.109833794 19.766284066
328 2 1.446607438 9.960165901 7.731284219
329 2 14.003925437 17.898452035 20.336743031
330 2 22.101074105 6.17154766 8.301743184
331 2 10.066074258 5.863452187 15.768256511
332 2 1.968925589 18.206547507 3.733256663
333 2 20.336743031 14.003925437 17.898452035
334 2 15.768256511 10.066074258 5.863452187
335 2 3.733256663 1.968925589 18.206547507
336 2 8.301743184 22.101074105 6.17154766
337 2 17.898452035 20.336743031 14.003925437
338 2 18.206547507 3.733256663 1.968925589
339 2 6.17154766 8.301743184 22.101074105
340 2 5.863452187 15.768256511 10.066074258
341 2 11.880952111 20.021425361 9.750756587
342 2 0.154047736 4.048574334 21.785756435
343 2 12.189047584 7.986425513 2.28424326
344 2 23.915951958 16.083574182 14.319243108
345 2 7.98642623 2.284242902 12.189047584
346 2 4.048573617 21.785756435 0.154047736
347 2 16.083574182 14.319243108 23.915951958
348 2 20.021425361 9.750756587 11.880952111
349 2 14.319243108 23.915951958 16.083574182
350 2 21.785756435 0.154047736 4.048574334
351 2 9.750756587 11.880952111 20.021425361
352 2 2.28424326 12.189047584 7.986425513
353 4 19.217487391 19.980506744 17.985104066
354 4 16.887512151 4.08949295 5.950104218
355 4 4.852512303 7.945506897 18.119895476
356 4 7.182487544 16.124492798 6.084895629
357 5 13.963006821 1.164987979 12.102395553
358 5 22.141992722 22.905012075 0.067395705
359 5 10.106992874 13.199987468 24.00260399
360 5 1.928006973 10.870012227 11.967604142
