# LAMMPS data file

360 atoms
5 atom types

0.0 24.0699996948 xlo xhi
0.0 24.0699996948 ylo yhi
0.0 24.0699996948 zlo zhi

Atoms  # atomic

1 1 17.766066589 14.461255282 21.229740431
2 1 18.338932953 9.608744413 9.194740584
3 1 6.303933106 2.426255434 14.875259111
4 1 5.731066741 21.64374426 2.840259264
5 1 21.229740431 17.766066589 14.461255282
6 1 9.194740584 18.338932953 9.608744413
7 1 14.875259111 6.303933106 2.426255434
8 1 2.840259264 5.731066741 21.64374426
9 1 14.461255282 21.229740431 17.766066589
10 1 9.608744413 9.194740584 18.338932953
11 1 2.426255434 14.875259111 6.303933106
12 1 21.64374426 2.840259264 5.731066741
13 1 8.443756075 23.783566513 8.857759905
14 1 3.591243772 0.286433182 20.89276047
15 1 15.626242902 11.748566665 3.177239943
16 1 20.47875664 12.32143303 15.212239073
17 1 8.857759905 8.443756075 23.783566513
18 1 20.89276047 3.591243772 0.286433182
19 1 3.177239943 15.626242902 11.748566665
20 1 15.212239073 20.47875664 12.32143303
21 1 23.783566513 8.857759905 8.443756075
22 1 0.286433182 20.89276047 3.591243772
23 1 11.748566665 3.177239943 15.626242902
24 1 12.32143303 15.212239073 20.47875664
25 1 18.940682372 14.636966743 20.420987663
26 1 17.16431717 9.433032952 8.385987816
27 1 5.129317323 2.601966896 15.684011879
28 1 6.905682525 21.468032799 3.649012032
29 1 20.420987663 18.940682372 14.636966743
30 1 8.385987816 17.16431717 9.433032952
31 1 15.684011879 5.129317323 2.601966896
32 1 3.649012032 6.905682525 21.468032799
33 1 14.636966743 20.420987663 18.940682372
34 1 9.433032952 8.385987816 17.16431717
35 1 2.601966896 15.684011879 5.129317323
36 1 21.468032799 3.649012032 6.905682525
37 1 8.61946682 0.888182959 9.666511955
38 1 3.415533028 23.181817094 21.701511803
39 1 15.450532875 12.923182448 2.368487892
40 1 20.654466667 11.146817247 14.403487739
41 1 9.666511955 8.61946682 0.888182959
42 1 21.701511803 3.415533028 23.181817094
43 1 2.368487892 15.450532875 12.923182448
44 1 14.403487739 20.654466667 11.146817247
45 1 0.888182959 9.666511955 8.61946682
46 1 23.181817094 21.701511803 3.415533028
47 1 12.923182448 2.368487892 15.450532875
48 1 11.146817247 14.403487739 20.654466667
49 1 14.793421879 17.30392338 20.813329202
50 1 21.311577663 6.766076315 8.778329355
51 1 9.276577816 5.268923532 15.29167034
52 1 2.758422032 18.801076163 3.256670493
53 1 20.813329202 14.793421879 17.30392338
54 1 8.778329355 21.311577663 6.766076315
55 1 15.29167034 9.276577816 5.268923532
56 1 3.256670493 2.758422032 18.801076163
57 1 17.30392338 20.813329202 14.793421879
58 1 6.766076315 8.778329355 21.311577663
59 1 5.268923532 15.29167034 9.276577816
60 1 18.801076163 3.256670493 2.758422032
61 1 11.286422739 20.810921803 9.274171134
62 1 0.748577109 3.259077892 21.309171699
63 1 12.783577673 8.775921955 2.760828714
64 1 23.321421869 15.29407774 14.795827844
65 1 9.274171134 11.286422739 20.810921803
66 1 21.309171699 0.748577109 3.259077892
67 1 2.760828714 12.783577673 8.775921955
68 1 14.795827844 23.321421869 15.29407774
69 1 20.810921803 9.274171134 11.286422739
70 1 3.259077892 21.309171699 0.748577109
71 1 8.775921955 2.760828714 12.783577673
72 1 15.29407774 14.795827844 23.321421869
73 1 15.558847197 15.38313717 22.141992722
74 1 20.546152346 8.686862525 10.106992874
75 1 8.511152498 3.348137323 13.963006821
76 1 3.523847349 20.721862372 1.928006973
77 1 22.141992722 15.558847197 15.38313717
78 1 10.106992874 20.546152346 8.686862525
79 1 13.963006821 8.511152498 3.348137323
80 1 1.928006973 3.523847349 20.721862372
81 1 15.38313717 22.141992722 15.558847197
82 1 8.686862525 10.106992874 20.546152346
83 1 3.348137323 13.963006821 8.511152498
84 1 20.721862372 1.928006973 3.523847349
85 1 9.365636529 21.57634712 7.945506897
86 1 2.669363319 2.493652574 19.980506744
87 1 14.704363883 9.541347273 4.08949295
88 1 21.400635659 14.528652422 16.124492798
89 1 7.945506897 9.365636529 21.57634712
90 1 19.980506744 2.669363319 2.493652574
91 1 4.08949295 14.704363883 9.541347273
92 1 16.124492798 21.400635659 14.528652422
93 1 21.57634712 7.945506897 9.365636529
94 1 2.493652574 19.980506744 2.669363319
95 1 9.541347273 4.08949295 14.704363883
96 1 14.528652422 16.124492798 21.400635659
97 1 18.456875438 16.945279693 20.563001272
98 1 17.648124105 7.124720001 8.528001424
99 1 5.613124257 4.910279846 15.54199827
100 1 6.42187559 19.159719849 3.506998423
101 1 20.563001272 18.456875438 16.945279693
102 1 8.528001424 17.648124105 7.124720001
103 1 15.54199827 5.613124257 4.910279846
104 1 3.506998423 6.42187559 19.159719849
105 1 16.945279693 20.563001272 18.456875438
106 1 7.124720001 8.528001424 17.648124105
107 1 4.910279846 15.54199827 5.613124257
108 1 19.159719849 3.506998423 6.42187559
109 1 10.92777977 0.40437598 9.524499064
110 1 1.107220078 23.665624028 21.559498194
111 1 13.142219925 12.439375514 2.510500783
112 1 22.962779617 11.630624181 14.545501348
113 1 9.524499064 10.92777977 0.40437598
114 1 21.559498194 1.107220078 23.665624028
115 1 2.510500783 13.142219925 12.439375514
116 1 14.545501348 22.962779617 11.630624181
117 1 0.40437598 9.524499064 10.92777977
118 1 23.665624028 21.559498194 1.107220078
119 1 12.439375514 2.510500783 13.142219925
120 1 11.630624181 14.545501348 22.962779617
121 1 16.54812479 19.020113639 20.189916059
122 1 19.556874752 5.049886055 8.154916211
123 1 7.521874905 6.985113792 15.915083484
124 1 4.513124943 17.084885903 3.880083636
125 1 20.189916059 16.54812479 19.020113639
126 1 8.154916211 19.556874752 5.049886055
127 1 15.915083484 7.521874905 6.985113792
128 1 3.880083636 4.513124943 17.084885903
129 1 19.020113639 20.189916059 16.54812479
130 1 5.049886055 8.154916211 19.556874752
131 1 6.985113792 15.915083484 7.521874905
132 1 17.084885903 3.880083636 4.513124943
133 1 13.002613716 22.565624714 9.89758356
134 1 23.102385826 1.504374981 21.932583407
135 1 11.067385979 10.530624866 2.137416287
136 1 0.967613868 13.539374828 14.172416135
137 1 9.89758356 13.002613716 22.565624714
138 1 21.932583407 23.102385826 1.504374981
139 1 2.137416287 11.067385979 10.530624866
140 1 14.172416135 0.967613868 13.539374828
141 1 22.565624714 9.89758356 13.002613716
142 1 1.504374981 21.932583407 23.102385826
143 1 10.530624866 2.137416287 11.067385979
144 1 13.539374828 14.172416135 0.967613868
145 1 23.22514311 21.990352385 23.908731195
146 1 12.879856433 2.07964731 11.873731348
147 1 0.844856585 9.955352537 12.196268347
148 1 11.190143262 14.114647158 0.1612685
149 1 23.908731195 23.22514311 21.990352385
150 1 11.873731348 12.879856433 2.07964731
151 1 12.196268347 0.844856585 9.955352537
152 1 0.1612685 11.190143262 14.114647158
153 1 21.990352385 23.908731195 23.22514311
154 1 2.07964731 11.873731348 12.879856433
155 1 9.955352537 12.196268347 0.844856585
156 1 14.114647158 0.1612685 11.190143262
157 1 15.972852461 5.17264298 6.178769141
158 1 20.132147081 18.897356356 18.213769706
159 1 8.097147234 17.207643186 5.856230707
160 1 3.937852613 6.862356509 17.891229837
161 1 6.178769141 15.972852461 5.17264298
162 1 18.213769706 20.132147081 18.897356356
163 1 5.856230707 8.097147234 17.207643186
164 1 17.891229837 3.937852613 6.862356509
165 1 5.17264298 6.178769141 15.972852461
166 1 18.897356356 18.213769706 20.132147081
167 1 17.207643186 5.856230707 8.097147234
168 1 6.862356509 17.891229837 3.937852613
169 1 17.166723135 16.791231957 21.008295555
170 1 18.938276407 7.278767738 8.973295707
171 1 6.90327656 4.75623211 15.096703988
172 1 5.131723288 19.313767585 3.06170414
173 1 21.008295555 17.166723135 16.791231957
174 1 8.973295707 18.938276407 7.278767738
175 1 15.096703988 6.90327656 4.75623211
176 1 3.06170414 5.131723288 19.313767585
177 1 16.791231957 21.008295555 17.166723135
178 1 7.278767738 8.973295707 18.938276407
179 1 4.75623211 15.096703988 6.90327656
180 1 19.313767585 3.06170414 5.131723288
181 1 10.773732033 23.184223059 9.079204064
182 1 1.261267814 0.885776636 21.114203911
183 1 13.296267662 11.149223211 2.955795783
184 1 22.808731881 12.920776484 14.990795631
185 1 9.079204064 10.773732033 23.184223059
186 1 21.114203911 1.261267814 0.885776636
187 1 2.955795783 13.296267662 11.149223211
188 1 14.990795631 22.808731881 12.920776484
189 1 23.184223059 9.079204064 10.773732033
190 1 0.885776636 21.114203911 1.261267814
191 1 11.149223211 2.955795783 13.296267662
192 1 12.920776484 14.990795631 22.808731881
193 1 16.163005449 17.814207403 20.729083136
194 1 19.941994093 6.255792292 8.694083288
195 1 7.906994246 5.779207556 15.375916406
196 1 4.128005602 18.290792139 3.340916559
197 1 20.729083136 16.163005449 17.814207403
198 1 8.694083288 19.941994093 6.255792292
199 1 15.375916406 7.906994246 5.779207556
200 1 3.340916559 4.128005602 18.290792139
201 1 17.814207403 20.729083136 16.163005449
202 1 6.255792292 8.694083288 19.941994093
203 1 5.779207556 15.375916406 7.906994246
204 1 18.290792139 3.340916559 4.128005602
205 1 11.796706762 22.180505373 9.358415765
206 1 0.238293085 1.889494322 21.39341633
207 1 12.273292215 10.145505526 2.676584082
208 1 23.831707327 13.924494169 14.711583212
209 1 9.358415765 11.796706762 22.180505373
210 1 21.39341633 0.238293085 1.889494322
211 1 2.676584082 12.273292215 10.145505526
212 1 14.711583212 23.831707327 13.924494169
213 1 22.180505373 9.358415765 11.796706762
214 1 1.889494322 21.39341633 0.238293085
215 1 10.145505526 2.676584082 12.273292215
216 1 13.924494169 14.711583212 23.831707327
217 1 19.299326058 15.891013794 20.033460923
218 1 16.805673484 8.178985901 7.998461075
219 1 4.770673637 3.856013947 16.071538619
220 1 7.264326211 20.213985748 4.036538772
221 1 20.033460923 19.299326058 15.891013794
222 1 7.998461075 16.805673484 8.178985901
223 1 16.071538619 4.770673637 3.856013947
224 1 4.036538772 7.264326211 20.213985748
225 1 15.891013794 20.033460923 19.299326058
226 1 8.178985901 7.998461075 16.805673484
227 1 3.856013947 16.071538619 4.770673637
228 1 20.213985748 4.036538772 7.264326211
229 1 9.87351387 1.246826018 10.054038696
230 1 2.161485977 22.823173408 22.089038543
231 1 14.196485825 13.281826135 1.980961152
232 1 21.908513718 10.78817356 14.015960999
233 1 10.054038696 9.87351387 1.246826018
234 1 22.089038543 2.161485977 22.823173408
235 1 1.980961152 14.196485825 13.281826135
236 1 14.015960999 21.908513718 10.78817356
237 1 1.246826018 10.054038696 9.87351387
238 1 22.823173408 22.089038543 2.161485977
239 1 13.281826135 1.980961152 14.196485825
240 1 10.78817356 14.015960999 21.908513718
241 1 16.880291387 15.477009964 21.487289125
242 1 19.224708155 8.59298973 9.452289277
243 1 7.189708307 3.442010117 14.617710418
244 1 4.84529154 20.627989578 2.58271057
245 1 21.487289125 16.880291387 15.477009964
246 1 9.452289277 19.224708155 8.59298973
247 1 14.617710418 7.189708307 3.442010117
248 1 2.58271057 4.84529154 20.627989578
249 1 15.477009964 21.487289125 16.880291387
250 1 8.59298973 9.452289277 19.224708155
251 1 3.442010117 14.617710418 7.189708307
252 1 20.627989578 2.58271057 4.84529154
253 1 9.459510041 22.897791311 8.600211211
254 1 2.575489807 1.172208384 20.635211776
255 1 14.610489654 10.862791464 3.434788636
256 1 21.494509888 13.207208231 15.469787766
257 1 8.600211211 9.459510041 22.897791311
258 1 20.635211776 2.575489807 1.172208384
259 1 3.434788636 14.610489654 10.862791464
260 1 15.469787766 21.494509888 13.207208231
261 1 22.897791311 8.600211211 9.459510041
262 1 1.172208384 20.635211776 2.575489807
263 1 10.862791464 3.434788636 14.610489654
264 1 13.207208231 15.469787766 21.494509888
265 2 13.450315398 21.598010846 17.551843911
266 2 22.654684144 2.471988849 5.516844063
267 2 10.619684297 9.563010998 18.553155632
268 2 1.415315551 14.506988697 6.518155784
269 2 17.551843911 13.450315398 21.598010846
270 2 5.516844063 22.654684144 2.471988849
271 2 18.553155632 10.619684297 9.563010998
272 2 6.518155784 1.415315551 14.506988697
273 2 21.598010846 17.551843911 13.450315398
274 2 2.471988849 5.516844063 22.654684144
275 2 9.563010998 18.553155632 10.619684297
276 2 14.506988697 6.518155784 1.415315551
277 2 15.580510922 19.467815322 12.535655708
278 2 20.52448862 4.602184373 0.500655861
279 2 8.489488773 7.432815474 23.569343834
280 2 3.545511074 16.637184221 11.534343987
281 2 12.535655708 15.580510922 19.467815322
282 2 0.500655861 20.52448862 4.602184373
283 2 23.569343834 8.489488773 7.432815474
284 2 11.534343987 3.545511074 16.637184221
285 2 19.467815322 12.535655708 15.580510922
286 2 4.602184373 0.500655861 20.52448862
287 2 7.432815474 23.569343834 8.489488773
288 2 16.637184221 11.534343987 3.545511074
289 2 13.748784142 20.127333717 19.49910721
290 2 22.3562154 3.942665978 7.464107362
291 2 10.321215552 8.09233387 16.605892333
292 2 1.713784295 15.977665825 4.570892485
293 2 19.49910721 13.748784142 20.127333717
294 2 7.464107362 22.3562154 3.942665978
295 2 16.605892333 10.321215552 8.09233387
296 2 4.570892485 1.713784295 15.977665825
297 2 20.127333717 19.49910721 13.748784142
298 2 3.942665978 7.464107362 22.3562154
299 2 8.09233387 16.605892333 10.321215552
300 2 15.977665825 4.570892485 1.713784295
301 2 14.109833794 19.766284066 10.588393126
302 2 21.995165749 4.303715629 22.623393691
303 2 9.960165901 7.731284219 1.446606721
304 2 2.074833946 16.338715476 13.481605851
305 2 10.588393126 14.109833794 19.766284066
306 2 22.623393691 21.995165749 4.303715629
307 2 1.446606721 9.960165901 7.731284219
308 2 13.481605851 2.074833946 16.338715476
309 2 19.766284066 10.588393126 14.109833794
310 2 4.303715629 22.623393691 21.995165749
311 2 7.731284219 1.446606721 9.960165901
312 2 16.338715476 13.481605851 2.074833946
313 2 14.003925437 17.898452035 20.336743031
314 2 22.101074105 6.17154766 8.301743184
315 2 10.066074258 5.863452187 15.768256511
316 2 1.968925589 18.206547507 3.733256663
317 2 20.336743031 14.003925437 17.898452035
318 2 8.301743184 22.101074105 6.17154766
319 2 15.768256511 10.066074258 5.863452187
320 2 3.733256663 1.968925589 18.206547507
321 2 17.898452035 20.336743031 14.003925437
322 2 6.17154766 8.301743184 22.101074105
323 2 5.863452187 15.768256511 10.066074258
324 2 18.206547507 3.733256663 1.968925589
325 2 11.880952111 20.021425361 9.750756587
326 2 0.154047736 4.048574334 21.785756435
327 2 12.189047584 7.986425513 2.28424326
328 2 23.915951958 16.083574182 14.319243108
329 2 9.750756587 11.880952111 20.021425361
330 2 21.785756435 0.154047736 4.048574334
331 2 2.28424326 12.189047584 7.986425513
332 2 14.319243108 23.915951958 16.083574182
333 2 20.021425361 9.750756587 11.880952111
334 2 4.048574334 21.785756435 0.154047736
335 2 7.986425513 2.28424326 12.189047584
336 2 16.083574182 14.319243108 23.915951958
337 4 19.217487391 19.980506744 17.985104066
338 4 16.887512151 4.08949295 5.950104218
339 4 4.852512303 7.945506897 18.119895476
340 4 7.182487544 16.124492798 6.084895629
341 4 17.985104066 19.217487391 19.980506744
342 4 5.950104218 16.887512151 4.08949295
343 4 18.119895476 4.852512303 7.945506897
344 4 6.084895629 7.182487544 16.124492798
345 4 19.980506744 17.985104066 19.217487391
346 4 4.08949295 5.950104218 16.887512151
347 4 7.945506897 18.119895476 4.852512303
348 4 16.124492798 6.084895629 7.182487544
349 5 13.963006821 1.164987979 12.102395553
350 5 22.141992722 22.905012075 0.067395705
351 5 10.106992874 13.199987468 24.00260399
352 5 1.928006973 10.870012227 11.967604142
353 5 12.102395553 13.963006821 1.164987979
354 5 0.067395705 22.141992722 22.905012075
355 5 24.00260399 10.106992874 13.199987468
356 5 11.967604142 1.928006973 10.870012227
357 5 1.164987979 12.102395553 13.963006821
358 5 22.905012075 0.067395705 22.141992722
359 5 13.199987468 24.00260399 10.106992874
360 5 10.870012227 11.967604142 1.928006973
