 *******************************************************************************
 **                                                                           **
 **                              MOPAC v22.1.0                                **
 **                                                                           **
 *******************************************************************************
 **          Digital Object Identifier (DOI): 10.5281/zenodo.6511958          **
 **    Visit the DOI location for information on how to cite this program.    **
 *******************************************************************************

                              PM7 CALCULATION RESULTS

 *******************************************************************************
 *  CALCULATION DONE:                                Fri Dec 22 13:02:10 2023  *
 *  PM7        - The PM7 Hamiltonian to be used
 *  NOOPT      - DO NOT OPTIMIZE ANY COORDINATES
 *
 *
 *
 *                 CHARGE ON SYSTEM = 0
 *
 *
 *
 *  T=         - A TIME OF 172800.0 SECONDS REQUESTED
 *  DUMP=N     - RESTART FILE WRITTEN EVERY 7200.0 SECONDS REQUESTED
 *******************************************************************************
PM7 CHARGE=0 NOOPT


   ATOM   CHEMICAL          X               Y               Z
  NUMBER   SYMBOL      (ANGSTROMS)     (ANGSTROMS)     (ANGSTROMS)

     1       N          8.60021100      9.45951000     22.89779100   
     2       N         10.86279100      3.43478900     14.61049000   
     3       N          1.17220900     20.63521100      2.57549000   
     4       N          9.45228900     19.22470900      8.59299000   
     5       C         17.76606700     14.46125600     21.22974000   
     6       C          2.84026000      5.73106700     21.64374400   
     7       C          3.17724000     15.62624400     11.74856700   
     8       C         21.22974000     17.76606700     14.46125600   
     9       C         21.64374400      2.84026000      5.73106700   
    10       C          3.59124400      0.28643300     20.89276000   
    11       C         14.46125600     21.22974000     17.76606700   
    12       C          5.73106700     21.64374400      2.84026000   
    13       C         15.62624400     11.74856700      3.17724000   
    14       C          6.30393300      2.42625600     14.87526000   
    15       C         20.47875600     12.32143300     15.21224000   
    16       C         20.89276000      3.59124400      0.28643300   
    17       C         12.32143300     15.21224000     20.47875600   
    18       C         15.21224000     20.47875600     12.32143300   
    19       C          8.44375600     23.78356700      8.85776000   
    20       C         18.33893300      9.60874400      9.19474000   
    21       C          9.60874400      9.19474000     18.33893300   
    22       C         14.87526000      6.30393300      2.42625600   
    23       C          2.42625600     14.87526000      6.30393300   
    24       C         23.78356700      8.85776000      8.44375600   
    25       C          8.85776000      8.44375600     23.78356700   
    26       C         11.74856700      3.17724000     15.62624400   
    27       C          0.28643300     20.89276000      3.59124400   
    28       C          9.19474000     18.33893300      9.60874400   
    29       C         18.94068300     14.63696700     20.42098800   
    30       C          3.64901200      6.90568300     21.46803300   
    31       C          2.36848800     15.45053300     12.92318300   
    32       C         20.42098800     18.94068300     14.63696700   
    33       C         21.46803300      3.64901200      6.90568300   
    34       C          3.41553300     23.18181700     21.70151200   
    35       C         14.63696700     20.42098800     18.94068300   
    36       C          6.90568300     21.46803300      3.64901200   
    37       C         15.45053300     12.92318300      2.36848800   
    38       C          5.12931700      2.60196700     15.68401200   
    39       C         20.65446700     11.14681700     14.40348800   
    40       C         21.70151200      3.41553300     23.18181700   
    41       C         11.14681700     14.40348800     20.65446700   
    42       C         14.40348800     20.65446700     11.14681700   
    43       C          8.61946700      0.88818300      9.66651200   
    44       C         17.16431700      9.43303300      8.38598800   
    45       C          9.43303300      8.38598800     17.16431700   
    46       C         15.68401200      5.12931700      2.60196700   
    47       C          2.60196700     15.68401200      5.12931700   
    48       C          0.88818300      9.66651200      8.61946700   
    49       C          9.66651200      8.61946700      0.88818300   
    50       C         12.92318300      2.36848800     15.45053300   
    51       C         23.18181700     21.70151200      3.41553300   
    52       C          8.38598800     17.16431700      9.43303300   
    53       C         15.55884800     15.38313700     22.14199300   
    54       C          1.92800700      3.52384800     20.72186300   
    55       C          4.08949300     14.70436300      9.54134800   
    56       C         22.14199300     15.55884800     15.38313700   
    57       C         20.72186300      1.92800700      3.52384800   
    58       C          2.66936300      2.49365200     19.98050700   
    59       C         15.38313700     22.14199300     15.55884800   
    60       C          3.52384800     20.72186300      1.92800700   
    61       C         14.70436300      9.54134800      4.08949300   
    62       C          8.51115200      3.34813700     13.96300700   
    63       C         21.40063700     14.52865200     16.12449300   
    64       C         19.98050700      2.66936300      2.49365200   
    65       C         14.52865200     16.12449300     21.40063700   
    66       C         16.12449300     21.40063700     14.52865200   
    67       C          9.36563700     21.57634800      7.94550700   
    68       C         20.54615200      8.68686300     10.10699300   
    69       C          8.68686300     10.10699300     20.54615200   
    70       C         13.96300700      8.51115200      3.34813700   
    71       C          3.34813700     13.96300700      8.51115200   
    72       C         21.57634800      7.94550700      9.36563700   
    73       C          7.94550700      9.36563700     21.57634800   
    74       C          9.54134800      4.08949300     14.70436300   
    75       C          2.49365200     19.98050700      2.66936300   
    76       C         10.10699300     20.54615200      8.68686300   
    77       C         19.21748800     19.98050700     17.98510400   
    78       C          6.08489600      7.18248800     16.12449300   
    79       C         24.00260400     10.10699300     13.19998800   
    80       C         17.98510400     19.21748800     19.98050700   
    81       C         16.12449300      6.08489600      7.18248800   
    82       C         22.14199300     22.90501200      0.06739600   
    83       C         19.98050700     17.98510400     19.21748800   
    84       C          7.18248800     16.12449300      6.08489600   
    85       C         10.10699300     13.19998800     24.00260400   
    86       C          4.85251200      7.94550700     18.11989600   
    87       C          1.92800700     10.87001200     11.96760400   
    88       C          0.06739600     22.14199300     22.90501200   
    89       C         10.87001200     11.96760400      1.92800700   
    90       C         11.96760400      1.92800700     10.87001200   
    91       C         13.96300700      1.16498800     12.10239600   
    92       C         16.88751200      4.08949300      5.95010400   
    93       C          4.08949300      5.95010400     16.88751200   
    94       C         18.11989600      4.85251200      7.94550700   
    95       C          7.94550700     18.11989600      4.85251200   
    96       C          1.16498800     12.10239600     13.96300700   
    97       C         12.10239600     13.96300700      1.16498800   
    98       C         13.19998800     24.00260400     10.10699300   
    99       C         22.90501200      0.06739600     22.14199300   
   100       C          5.95010400     16.88751200      4.08949300   
   101       C         18.45687600     16.94528000     20.56300100   
   102       C          3.50699900      6.42187600     19.15972000   
   103       C          2.51050100     13.14222000     12.43937600   
   104       C         20.56300100     18.45687600     16.94528000   
   105       C         19.15972000      3.50699900      6.42187600   
   106       C          1.10722000     23.66562400     21.55949900   
   107       C         16.94528000     20.56300100     18.45687600   
   108       C          6.42187600     19.15972000      3.50699900   
   109       C         13.14222000     12.43937600      2.51050100   
   110       C          5.61312400      4.91028000     15.54199900   
   111       C         22.96278000     11.63062400     14.54550100   
   112       C         21.55949900      1.10722000     23.66562400   
   113       C         11.63062400     14.54550100     22.96278000   
   114       C         14.54550100     22.96278000     11.63062400   
   115       C         10.92778000      0.40437600      9.52449900   
   116       C         17.64812400      7.12472000      8.52800100   
   117       C          7.12472000      8.52800100     17.64812400   
   118       C         15.54199900      5.61312400      4.91028000   
   119       C          4.91028000     15.54199900      5.61312400   
   120       C          0.40437600      9.52449900     10.92778000   
   121       C          9.52449900     10.92778000      0.40437600   
   122       C         12.43937600      2.51050100     13.14222000   
   123       C         23.66562400     21.55949900      1.10722000   
   124       C          8.52800100     17.64812400      7.12472000   
   125       C         16.54812500     19.02011400     20.18991600   
   126       C          3.88008400      4.51312500     17.08488600   
   127       C          2.13741600     11.06738600     10.53062500   
   128       C         20.18991600     16.54812500     19.02011400   
   129       C         17.08488600      3.88008400      4.51312500   
   130       C         23.10238600      1.50437500     21.93258400   
   131       C         19.02011400     20.18991600     16.54812500   
   132       C          4.51312500     17.08488600      3.88008400   
   133       C         11.06738600     10.53062500      2.13741600   
   134       C          7.52187500      6.98511400     15.91508400   
   135       C          0.96761400     13.53937500     14.17241600   
   136       C         21.93258400     23.10238600      1.50437500   
   137       C         13.53937500     14.17241600      0.96761400   
   138       C         14.17241600      0.96761400     13.53937500   
   139       C         13.00261400     22.56562500      9.89758400   
   140       C         19.55687500      5.04988600      8.15491600   
   141       C          5.04988600      8.15491600     19.55687500   
   142       C         15.91508400      7.52187500      6.98511400   
   143       C          6.98511400     15.91508400      7.52187500   
   144       C         22.56562500      9.89758400     13.00261400   
   145       C          9.89758400     13.00261400     22.56562500   
   146       C         10.53062500      2.13741600     11.06738600   
   147       C          1.50437500     21.93258400     23.10238600   
   148       C          8.15491600     19.55687500      5.04988600   
   149       C         23.22514300     21.99035200     23.90873100   
   150       C          0.16126900     11.19014300     14.11464800   
   151       C          5.85623100      8.09714800     17.20764300   
   152       C         23.90873100     23.22514300     21.99035200   
   153       C         14.11464800      0.16126900     11.19014300   
   154       C         20.13214800     18.89735700     18.21376900   
   155       C         21.99035200     23.90873100     23.22514300   
   156       C         11.19014300     14.11464800      0.16126900   
   157       C          8.09714800     17.20764300      5.85623100   
   158       C          0.84485700      9.95535200     12.19626900   
   159       C          3.93785200      6.86235700     17.89123100   
   160       C         18.21376900     20.13214800     18.89735700   
   161       C          6.86235700     17.89123100      3.93785200   
   162       C         17.89123100      3.93785200      6.86235700   
   163       C         15.97285200      5.17264300      6.17876900   
   164       C         12.87985700      2.07964800     11.87373100   
   165       C          2.07964800     11.87373100     12.87985700   
   166       C         12.19626900      0.84485700      9.95535200   
   167       C          9.95535200     12.19626900      0.84485700   
   168       C          5.17264300      6.17876900     15.97285200   
   169       C          6.17876900     15.97285200      5.17264300   
   170       C         17.20764300      5.85623100      8.09714800   
   171       C         18.89735700     18.21376900     20.13214800   
   172       C         11.87373100     12.87985700      2.07964800   
   173       C         17.16672400     16.79123200     21.00829600   
   174       C          3.06170400      5.13172400     19.31376800   
   175       C          2.95579600     13.29626800     11.14922400   
   176       C         21.00829600     17.16672400     16.79123200   
   177       C         19.31376800      3.06170400      5.13172400   
   178       C          1.26126800      0.88577600     21.11420400   
   179       C         16.79123200     21.00829600     17.16672400   
   180       C          5.13172400     19.31376800      3.06170400   
   181       C         13.29626800     11.14922400      2.95579600   
   182       C          6.90327600      4.75623200     15.09670400   
   183       C         22.80873200     12.92077600     14.99079600   
   184       C         21.11420400      1.26126800      0.88577600   
   185       C         12.92077600     14.99079600     22.80873200   
   186       C         14.99079600     22.80873200     12.92077600   
   187       C         10.77373200     23.18422400      9.07920400   
   188       C         18.93827600      7.27876800      8.97329600   
   189       C          7.27876800      8.97329600     18.93827600   
   190       C         15.09670400      6.90327600      4.75623200   
   191       C          4.75623200     15.09670400      6.90327600   
   192       C         23.18422400      9.07920400     10.77373200   
   193       C          9.07920400     10.77373200     23.18422400   
   194       C         11.14922400      2.95579600     13.29626800   
   195       C          0.88577600     21.11420400      1.26126800   
   196       C          8.97329600     18.93827600      7.27876800   
   197       C         16.16300500     17.81420700     20.72908400   
   198       C          3.34091600      4.12800500     18.29079300   
   199       C          2.67658400     12.27329300     10.14550500   
   200       C         20.72908400     16.16300500     17.81420700   
   201       C         18.29079300      3.34091600      4.12800500   
   202       C          0.23829300      1.88949500     21.39341600   
   203       C         17.81420700     20.72908400     16.16300500   
   204       C          4.12800500     18.29079300      3.34091600   
   205       C         12.27329300     10.14550500      2.67658400   
   206       C          7.90699500      5.77920700     15.37591600   
   207       C         23.83170700     13.92449500     14.71158400   
   208       C         21.39341600      0.23829300      1.88949500   
   209       C         13.92449500     14.71158400     23.83170700   
   210       C         14.71158400     23.83170700     13.92449500   
   211       C         11.79670700     22.18050500      9.35841600   
   212       C         19.94199500      6.25579300      8.69408400   
   213       C          6.25579300      8.69408400     19.94199500   
   214       C         15.37591600      7.90699500      5.77920700   
   215       C          5.77920700     15.37591600      7.90699500   
   216       C         22.18050500      9.35841600     11.79670700   
   217       C          9.35841600     11.79670700     22.18050500   
   218       C         10.14550500      2.67658400     12.27329300   
   219       C          1.88949500     21.39341600      0.23829300   
   220       C          8.69408400     19.94199500      6.25579300   
   221       C         19.29932600     15.89101400     20.03346100   
   222       C          4.03653900      7.26432600     20.21398600   
   223       C          1.98096100     14.19648600     13.28182600   
   224       C         20.03346100     19.29932600     15.89101400   
   225       C         20.21398600      4.03653900      7.26432600   
   226       C          2.16148600     22.82317400     22.08903900   
   227       C         15.89101400     20.03346100     19.29932600   
   228       C          7.26432600     20.21398600      4.03653900   
   229       C         14.19648600     13.28182600      1.98096100   
   230       C          4.77067400      3.85601400     16.07153900   
   231       C         21.90851400     10.78817400     14.01596100   
   232       C         22.08903900      2.16148600     22.82317400   
   233       C         10.78817400     14.01596100     21.90851400   
   234       C         14.01596100     21.90851400     10.78817400   
   235       C          9.87351400      1.24682600     10.05403900   
   236       C         16.80567400      8.17898600      7.99846100   
   237       C          8.17898600      7.99846100     16.80567400   
   238       C         16.07153900      4.77067400      3.85601400   
   239       C          3.85601400     16.07153900      4.77067400   
   240       C          1.24682600     10.05403900      9.87351400   
   241       C         10.05403900      9.87351400      1.24682600   
   242       C         13.28182600      1.98096100     14.19648600   
   243       C         22.82317400     22.08903900      2.16148600   
   244       C          7.99846100     16.80567400      8.17898600   
   245       C         14.79342200     17.30392300     20.81332900   
   246       C          3.25667100      2.75842200     18.80107700   
   247       C          2.76082900     12.78357700      8.77592200   
   248       C         20.81332900     14.79342200     17.30392300   
   249       C         18.80107700      3.25667100      2.75842200   
   250       C          0.74857700      3.25907800     21.30917100   
   251       C         17.30392300     20.81332900     14.79342200   
   252       C          2.75842200     18.80107700      3.25667100   
   253       C         12.78357700      8.77592200      2.76082900   
   254       C          9.27657800      5.26892300     15.29167100   
   255       C         23.32142300     15.29407800     14.79582900   
   256       C         21.30917100      0.74857700      3.25907800   
   257       C         15.29407800     14.79582900     23.32142300   
   258       C         14.79582900     23.32142300     15.29407800   
   259       C         11.28642300     20.81092200      9.27417100   
   260       C         21.31157800      6.76607700      8.77832900   
   261       C          6.76607700      8.77832900     21.31157800   
   262       C         15.29167100      9.27657800      5.26892300   
   263       C          5.26892300     15.29167100      9.27657800   
   264       C         20.81092200      9.27417100     11.28642300   
   265       C          9.27417100     11.28642300     20.81092200   
   266       C          8.77592200      2.76082900     12.78357700   
   267       C          3.25907800     21.30917100      0.74857700   
   268       C          8.77832900     21.31157800      6.76607700   
   269       C         16.88029100     15.47701000     21.48728900   
   270       C          2.58271100      4.84529100     20.62799000   
   271       C          3.43478900     14.61049000     10.86279100   
   272       C         21.48728900     16.88029100     15.47701000   
   273       C         20.62799000      2.58271100      4.84529100   
   274       C          2.57549000      1.17220900     20.63521100   
   275       C         15.47701000     21.48728900     16.88029100   
   276       C          4.84529100     20.62799000      2.58271100   
   277       C         14.61049000     10.86279100      3.43478900   
   278       C          7.18970900      3.44201000     14.61771100   
   279       C         21.49451000     13.20720900     15.46978900   
   280       C         20.63521100      2.57549000      1.17220900   
   281       C         13.20720900     15.46978900     21.49451000   
   282       C         15.46978900     21.49451000     13.20720900   
   283       C          9.45951000     22.89779100      8.60021100   
   284       C         19.22470900      8.59299000      9.45228900   
   285       C          8.59299000      9.45228900     19.22470900   
   286       C         14.61771100      7.18970900      3.44201000   
   287       C          3.44201000     14.61771100      7.18970900   
   288       C         22.89779100      8.60021100      9.45951000   
   289       H         13.45031600     21.59801100     17.55184400   
   290       H          6.51815600      1.41531600     14.50698900   
   291       H         23.56934400      8.48948900      7.43281600   
   292       H         17.55184400     13.45031600     21.59801100   
   293       H         14.50698900      6.51815600      1.41531600   
   294       H         20.52448900      4.60218400      0.50065600   
   295       H         21.59801100     17.55184400     13.45031600   
   296       H          1.41531600     14.50698900      6.51815600   
   297       H          8.48948900      7.43281600     23.56934400   
   298       H         10.61968400      9.56301100     18.55315600   
   299       H          3.54551100     16.63718400     11.53434400   
   300       H          0.50065600     20.52448900      4.60218400   
   301       H         16.63718400     11.53434400      3.54551100   
   302       H         11.53434400      3.54551100     16.63718400   
   303       H         15.58051100     19.46781600     12.53565600   
   304       H         22.65468400      2.47198900      5.51684400   
   305       H          2.47198900      5.51684400     22.65468400   
   306       H         18.55315600     10.61968400      9.56301100   
   307       H          9.56301100     18.55315600     10.61968400   
   308       H         19.46781600     12.53565600     15.58051100   
   309       H         12.53565600     15.58051100     19.46781600   
   310       H          7.43281600     23.56934400      8.48948900   
   311       H          4.60218400      0.50065600     20.52448900   
   312       H          5.51684400     22.65468400      2.47198900   
   313       H         13.74878400     20.12733400     19.49910700   
   314       H          4.57089300      1.71378400     15.97766600   
   315       H          1.44660700      9.96016600      7.73128400   
   316       H         19.49910700     13.74878400     20.12733400   
   317       H         15.97766600      4.57089300      1.71378400   
   318       H         21.99516600      4.30371600     22.62339300   
   319       H         20.12733400     19.49910700     13.74878400   
   320       H          1.71378400     15.97766600      4.57089300   
   321       H          9.96016600      7.73128400      1.44660700   
   322       H         10.32121600      8.09233400     16.60589300   
   323       H          2.07483400     16.33871600     13.48160700   
   324       H         22.62339300     21.99516600      4.30371600   
   325       H         16.33871600     13.48160700      2.07483400   
   326       H         13.48160700      2.07483400     16.33871600   
   327       H         14.10983400     19.76628400     10.58839300   
   328       H         22.35621600      3.94266600      7.46410700   
   329       H          3.94266600      7.46410700     22.35621600   
   330       H         16.60589300     10.32121600      8.09233400   
   331       H          8.09233400     16.60589300     10.32121600   
   332       H         19.76628400     10.58839300     14.10983400   
   333       H         10.58839300     14.10983400     19.76628400   
   334       H          7.73128400      1.44660700      9.96016600   
   335       H          4.30371600     22.62339300     21.99516600   
   336       H          7.46410700     22.35621600      3.94266600   
   337       H         14.00392600     17.89845200     20.33674300   
   338       H          3.73325700      1.96892600     18.20654800   
   339       H          2.28424300     12.18904800      7.98642600   
   340       H         20.33674300     14.00392600     17.89845200   
   341       H         18.20654800      3.73325700      1.96892600   
   342       H          0.15404800      4.04857400     21.78575700   
   343       H         17.89845200     20.33674300     14.00392600   
   344       H          1.96892600     18.20654800      3.73325700   
   345       H         12.18904800      7.98642600      2.28424300   
   346       H         10.06607400      5.86345200     15.76825700   
   347       H         23.91595200     16.08357400     14.31924300   
   348       H         21.78575700      0.15404800      4.04857400   
   349       H         16.08357400     14.31924300     23.91595200   
   350       H         14.31924300     23.91595200     16.08357400   
   351       H         11.88095200     20.02142600      9.75075700   
   352       H         22.10107400      6.17154800      8.30174300   
   353       H          6.17154800      8.30174300     22.10107400   
   354       H         15.76825700     10.06607400      5.86345200   
   355       H          5.86345200     15.76825700     10.06607400   
   356       H         20.02142600      9.75075700     11.88095200   
   357       H          9.75075700     11.88095200     20.02142600   
   358       H          7.98642600      2.28424300     12.18904800   
   359       H          4.04857400     21.78575700      0.15404800   
   360       H          8.30174300     22.10107400      6.17154800   
   361      Tv         24.07000000      0.00000000      0.00000000   
   362      Tv          0.00000000     24.07000000      0.00000000   
   363      Tv          0.00000000      0.00000000     24.07000000   


                   THE SYSTEM IS A SOLID


                UNIT CELL TRANSLATION VECTORS

              X                Y              Z
    T1 =    24.0700000      0.0000000      0.0000000
    T2 =     0.0000000     24.0700000      0.0000000
    T3 =     0.0000000      0.0000000     24.0700000


          CARTESIAN COORDINATES 

    NO.       ATOM           X           Y           Z

     1         N          8.6002      9.4595     22.8978
     2         N         10.8628      3.4348     14.6105
     3         N          1.1722     20.6352      2.5755
     4         N          9.4523     19.2247      8.5930
     5         C         17.7661     14.4613     21.2297
     6         C          2.8403      5.7311     21.6437
     7         C          3.1772     15.6262     11.7486
     8         C         21.2297     17.7661     14.4613
     9         C         21.6437      2.8403      5.7311
    10         C          3.5912      0.2864     20.8928
    11         C         14.4613     21.2297     17.7661
    12         C          5.7311     21.6437      2.8403
    13         C         15.6262     11.7486      3.1772
    14         C          6.3039      2.4263     14.8753
    15         C         20.4788     12.3214     15.2122
    16         C         20.8928      3.5912      0.2864
    17         C         12.3214     15.2122     20.4788
    18         C         15.2122     20.4788     12.3214
    19         C          8.4438     23.7836      8.8578
    20         C         18.3389      9.6087      9.1947
    21         C          9.6087      9.1947     18.3389
    22         C         14.8753      6.3039      2.4263
    23         C          2.4263     14.8753      6.3039
    24         C         23.7836      8.8578      8.4438
    25         C          8.8578      8.4438     23.7836
    26         C         11.7486      3.1772     15.6262
    27         C          0.2864     20.8928      3.5912
    28         C          9.1947     18.3389      9.6087
    29         C         18.9407     14.6370     20.4210
    30         C          3.6490      6.9057     21.4680
    31         C          2.3685     15.4505     12.9232
    32         C         20.4210     18.9407     14.6370
    33         C         21.4680      3.6490      6.9057
    34         C          3.4155     23.1818     21.7015
    35         C         14.6370     20.4210     18.9407
    36         C          6.9057     21.4680      3.6490
    37         C         15.4505     12.9232      2.3685
    38         C          5.1293      2.6020     15.6840
    39         C         20.6545     11.1468     14.4035
    40         C         21.7015      3.4155     23.1818
    41         C         11.1468     14.4035     20.6545
    42         C         14.4035     20.6545     11.1468
    43         C          8.6195      0.8882      9.6665
    44         C         17.1643      9.4330      8.3860
    45         C          9.4330      8.3860     17.1643
    46         C         15.6840      5.1293      2.6020
    47         C          2.6020     15.6840      5.1293
    48         C          0.8882      9.6665      8.6195
    49         C          9.6665      8.6195      0.8882
    50         C         12.9232      2.3685     15.4505
    51         C         23.1818     21.7015      3.4155
    52         C          8.3860     17.1643      9.4330
    53         C         15.5588     15.3831     22.1420
    54         C          1.9280      3.5238     20.7219
    55         C          4.0895     14.7044      9.5413
    56         C         22.1420     15.5588     15.3831
    57         C         20.7219      1.9280      3.5238
    58         C          2.6694      2.4937     19.9805
    59         C         15.3831     22.1420     15.5588
    60         C          3.5238     20.7219      1.9280
    61         C         14.7044      9.5413      4.0895
    62         C          8.5112      3.3481     13.9630
    63         C         21.4006     14.5287     16.1245
    64         C         19.9805      2.6694      2.4937
    65         C         14.5287     16.1245     21.4006
    66         C         16.1245     21.4006     14.5287
    67         C          9.3656     21.5763      7.9455
    68         C         20.5462      8.6869     10.1070
    69         C          8.6869     10.1070     20.5462
    70         C         13.9630      8.5112      3.3481
    71         C          3.3481     13.9630      8.5112
    72         C         21.5763      7.9455      9.3656
    73         C          7.9455      9.3656     21.5763
    74         C          9.5413      4.0895     14.7044
    75         C          2.4937     19.9805      2.6694
    76         C         10.1070     20.5462      8.6869
    77         C         19.2175     19.9805     17.9851
    78         C          6.0849      7.1825     16.1245
    79         C         24.0026     10.1070     13.2000
    80         C         17.9851     19.2175     19.9805
    81         C         16.1245      6.0849      7.1825
    82         C         22.1420     22.9050      0.0674
    83         C         19.9805     17.9851     19.2175
    84         C          7.1825     16.1245      6.0849
    85         C         10.1070     13.2000     24.0026
    86         C          4.8525      7.9455     18.1199
    87         C          1.9280     10.8700     11.9676
    88         C          0.0674     22.1420     22.9050
    89         C         10.8700     11.9676      1.9280
    90         C         11.9676      1.9280     10.8700
    91         C         13.9630      1.1650     12.1024
    92         C         16.8875      4.0895      5.9501
    93         C          4.0895      5.9501     16.8875
    94         C         18.1199      4.8525      7.9455
    95         C          7.9455     18.1199      4.8525
    96         C          1.1650     12.1024     13.9630
    97         C         12.1024     13.9630      1.1650
    98         C         13.2000     24.0026     10.1070
    99         C         22.9050      0.0674     22.1420
   100         C          5.9501     16.8875      4.0895
   101         C         18.4569     16.9453     20.5630
   102         C          3.5070      6.4219     19.1597
   103         C          2.5105     13.1422     12.4394
   104         C         20.5630     18.4569     16.9453
   105         C         19.1597      3.5070      6.4219
   106         C          1.1072     23.6656     21.5595
   107         C         16.9453     20.5630     18.4569
   108         C          6.4219     19.1597      3.5070
   109         C         13.1422     12.4394      2.5105
   110         C          5.6131      4.9103     15.5420
   111         C         22.9628     11.6306     14.5455
   112         C         21.5595      1.1072     23.6656
   113         C         11.6306     14.5455     22.9628
   114         C         14.5455     22.9628     11.6306
   115         C         10.9278      0.4044      9.5245
   116         C         17.6481      7.1247      8.5280
   117         C          7.1247      8.5280     17.6481
   118         C         15.5420      5.6131      4.9103
   119         C          4.9103     15.5420      5.6131
   120         C          0.4044      9.5245     10.9278
   121         C          9.5245     10.9278      0.4044
   122         C         12.4394      2.5105     13.1422
   123         C         23.6656     21.5595      1.1072
   124         C          8.5280     17.6481      7.1247
   125         C         16.5481     19.0201     20.1899
   126         C          3.8801      4.5131     17.0849
   127         C          2.1374     11.0674     10.5306
   128         C         20.1899     16.5481     19.0201
   129         C         17.0849      3.8801      4.5131
   130         C         23.1024      1.5044     21.9326
   131         C         19.0201     20.1899     16.5481
   132         C          4.5131     17.0849      3.8801
   133         C         11.0674     10.5306      2.1374
   134         C          7.5219      6.9851     15.9151
   135         C          0.9676     13.5394     14.1724
   136         C         21.9326     23.1024      1.5044
   137         C         13.5394     14.1724      0.9676
   138         C         14.1724      0.9676     13.5394
   139         C         13.0026     22.5656      9.8976
   140         C         19.5569      5.0499      8.1549
   141         C          5.0499      8.1549     19.5569
   142         C         15.9151      7.5219      6.9851
   143         C          6.9851     15.9151      7.5219
   144         C         22.5656      9.8976     13.0026
   145         C          9.8976     13.0026     22.5656
   146         C         10.5306      2.1374     11.0674
   147         C          1.5044     21.9326     23.1024
   148         C          8.1549     19.5569      5.0499
   149         C         23.2251     21.9904     23.9087
   150         C          0.1613     11.1901     14.1146
   151         C          5.8562      8.0971     17.2076
   152         C         23.9087     23.2251     21.9904
   153         C         14.1146      0.1613     11.1901
   154         C         20.1321     18.8974     18.2138
   155         C         21.9904     23.9087     23.2251
   156         C         11.1901     14.1146      0.1613
   157         C          8.0971     17.2076      5.8562
   158         C          0.8449      9.9554     12.1963
   159         C          3.9379      6.8624     17.8912
   160         C         18.2138     20.1321     18.8974
   161         C          6.8624     17.8912      3.9379
   162         C         17.8912      3.9379      6.8624
   163         C         15.9729      5.1726      6.1788
   164         C         12.8799      2.0796     11.8737
   165         C          2.0796     11.8737     12.8799
   166         C         12.1963      0.8449      9.9554
   167         C          9.9554     12.1963      0.8449
   168         C          5.1726      6.1788     15.9729
   169         C          6.1788     15.9729      5.1726
   170         C         17.2076      5.8562      8.0971
   171         C         18.8974     18.2138     20.1321
   172         C         11.8737     12.8799      2.0796
   173         C         17.1667     16.7912     21.0083
   174         C          3.0617      5.1317     19.3138
   175         C          2.9558     13.2963     11.1492
   176         C         21.0083     17.1667     16.7912
   177         C         19.3138      3.0617      5.1317
   178         C          1.2613      0.8858     21.1142
   179         C         16.7912     21.0083     17.1667
   180         C          5.1317     19.3138      3.0617
   181         C         13.2963     11.1492      2.9558
   182         C          6.9033      4.7562     15.0967
   183         C         22.8087     12.9208     14.9908
   184         C         21.1142      1.2613      0.8858
   185         C         12.9208     14.9908     22.8087
   186         C         14.9908     22.8087     12.9208
   187         C         10.7737     23.1842      9.0792
   188         C         18.9383      7.2788      8.9733
   189         C          7.2788      8.9733     18.9383
   190         C         15.0967      6.9033      4.7562
   191         C          4.7562     15.0967      6.9033
   192         C         23.1842      9.0792     10.7737
   193         C          9.0792     10.7737     23.1842
   194         C         11.1492      2.9558     13.2963
   195         C          0.8858     21.1142      1.2613
   196         C          8.9733     18.9383      7.2788
   197         C         16.1630     17.8142     20.7291
   198         C          3.3409      4.1280     18.2908
   199         C          2.6766     12.2733     10.1455
   200         C         20.7291     16.1630     17.8142
   201         C         18.2908      3.3409      4.1280
   202         C          0.2383      1.8895     21.3934
   203         C         17.8142     20.7291     16.1630
   204         C          4.1280     18.2908      3.3409
   205         C         12.2733     10.1455      2.6766
   206         C          7.9070      5.7792     15.3759
   207         C         23.8317     13.9245     14.7116
   208         C         21.3934      0.2383      1.8895
   209         C         13.9245     14.7116     23.8317
   210         C         14.7116     23.8317     13.9245
   211         C         11.7967     22.1805      9.3584
   212         C         19.9420      6.2558      8.6941
   213         C          6.2558      8.6941     19.9420
   214         C         15.3759      7.9070      5.7792
   215         C          5.7792     15.3759      7.9070
   216         C         22.1805      9.3584     11.7967
   217         C          9.3584     11.7967     22.1805
   218         C         10.1455      2.6766     12.2733
   219         C          1.8895     21.3934      0.2383
   220         C          8.6941     19.9420      6.2558
   221         C         19.2993     15.8910     20.0335
   222         C          4.0365      7.2643     20.2140
   223         C          1.9810     14.1965     13.2818
   224         C         20.0335     19.2993     15.8910
   225         C         20.2140      4.0365      7.2643
   226         C          2.1615     22.8232     22.0890
   227         C         15.8910     20.0335     19.2993
   228         C          7.2643     20.2140      4.0365
   229         C         14.1965     13.2818      1.9810
   230         C          4.7707      3.8560     16.0715
   231         C         21.9085     10.7882     14.0160
   232         C         22.0890      2.1615     22.8232
   233         C         10.7882     14.0160     21.9085
   234         C         14.0160     21.9085     10.7882
   235         C          9.8735      1.2468     10.0540
   236         C         16.8057      8.1790      7.9985
   237         C          8.1790      7.9985     16.8057
   238         C         16.0715      4.7707      3.8560
   239         C          3.8560     16.0715      4.7707
   240         C          1.2468     10.0540      9.8735
   241         C         10.0540      9.8735      1.2468
   242         C         13.2818      1.9810     14.1965
   243         C         22.8232     22.0890      2.1615
   244         C          7.9985     16.8057      8.1790
   245         C         14.7934     17.3039     20.8133
   246         C          3.2567      2.7584     18.8011
   247         C          2.7608     12.7836      8.7759
   248         C         20.8133     14.7934     17.3039
   249         C         18.8011      3.2567      2.7584
   250         C          0.7486      3.2591     21.3092
   251         C         17.3039     20.8133     14.7934
   252         C          2.7584     18.8011      3.2567
   253         C         12.7836      8.7759      2.7608
   254         C          9.2766      5.2689     15.2917
   255         C         23.3214     15.2941     14.7958
   256         C         21.3092      0.7486      3.2591
   257         C         15.2941     14.7958     23.3214
   258         C         14.7958     23.3214     15.2941
   259         C         11.2864     20.8109      9.2742
   260         C         21.3116      6.7661      8.7783
   261         C          6.7661      8.7783     21.3116
   262         C         15.2917      9.2766      5.2689
   263         C          5.2689     15.2917      9.2766
   264         C         20.8109      9.2742     11.2864
   265         C          9.2742     11.2864     20.8109
   266         C          8.7759      2.7608     12.7836
   267         C          3.2591     21.3092      0.7486
   268         C          8.7783     21.3116      6.7661
   269         C         16.8803     15.4770     21.4873
   270         C          2.5827      4.8453     20.6280
   271         C          3.4348     14.6105     10.8628
   272         C         21.4873     16.8803     15.4770
   273         C         20.6280      2.5827      4.8453
   274         C          2.5755      1.1722     20.6352
   275         C         15.4770     21.4873     16.8803
   276         C          4.8453     20.6280      2.5827
   277         C         14.6105     10.8628      3.4348
   278         C          7.1897      3.4420     14.6177
   279         C         21.4945     13.2072     15.4698
   280         C         20.6352      2.5755      1.1722
   281         C         13.2072     15.4698     21.4945
   282         C         15.4698     21.4945     13.2072
   283         C          9.4595     22.8978      8.6002
   284         C         19.2247      8.5930      9.4523
   285         C          8.5930      9.4523     19.2247
   286         C         14.6177      7.1897      3.4420
   287         C          3.4420     14.6177      7.1897
   288         C         22.8978      8.6002      9.4595
   289         H         13.4503     21.5980     17.5518
   290         H          6.5182      1.4153     14.5070
   291         H         23.5693      8.4895      7.4328
   292         H         17.5518     13.4503     21.5980
   293         H         14.5070      6.5182      1.4153
   294         H         20.5245      4.6022      0.5007
   295         H         21.5980     17.5518     13.4503
   296         H          1.4153     14.5070      6.5182
   297         H          8.4895      7.4328     23.5693
   298         H         10.6197      9.5630     18.5532
   299         H          3.5455     16.6372     11.5343
   300         H          0.5007     20.5245      4.6022
   301         H         16.6372     11.5343      3.5455
   302         H         11.5343      3.5455     16.6372
   303         H         15.5805     19.4678     12.5357
   304         H         22.6547      2.4720      5.5168
   305         H          2.4720      5.5168     22.6547
   306         H         18.5532     10.6197      9.5630
   307         H          9.5630     18.5532     10.6197
   308         H         19.4678     12.5357     15.5805
   309         H         12.5357     15.5805     19.4678
   310         H          7.4328     23.5693      8.4895
   311         H          4.6022      0.5007     20.5245
   312         H          5.5168     22.6547      2.4720
   313         H         13.7488     20.1273     19.4991
   314         H          4.5709      1.7138     15.9777
   315         H          1.4466      9.9602      7.7313
   316         H         19.4991     13.7488     20.1273
   317         H         15.9777      4.5709      1.7138
   318         H         21.9952      4.3037     22.6234
   319         H         20.1273     19.4991     13.7488
   320         H          1.7138     15.9777      4.5709
   321         H          9.9602      7.7313      1.4466
   322         H         10.3212      8.0923     16.6059
   323         H          2.0748     16.3387     13.4816
   324         H         22.6234     21.9952      4.3037
   325         H         16.3387     13.4816      2.0748
   326         H         13.4816      2.0748     16.3387
   327         H         14.1098     19.7663     10.5884
   328         H         22.3562      3.9427      7.4641
   329         H          3.9427      7.4641     22.3562
   330         H         16.6059     10.3212      8.0923
   331         H          8.0923     16.6059     10.3212
   332         H         19.7663     10.5884     14.1098
   333         H         10.5884     14.1098     19.7663
   334         H          7.7313      1.4466      9.9602
   335         H          4.3037     22.6234     21.9952
   336         H          7.4641     22.3562      3.9427
   337         H         14.0039     17.8985     20.3367
   338         H          3.7333      1.9689     18.2065
   339         H          2.2842     12.1890      7.9864
   340         H         20.3367     14.0039     17.8985
   341         H         18.2065      3.7333      1.9689
   342         H          0.1540      4.0486     21.7858
   343         H         17.8985     20.3367     14.0039
   344         H          1.9689     18.2065      3.7333
   345         H         12.1890      7.9864      2.2842
   346         H         10.0661      5.8635     15.7683
   347         H         23.9160     16.0836     14.3192
   348         H         21.7858      0.1540      4.0486
   349         H         16.0836     14.3192     23.9160
   350         H         14.3192     23.9160     16.0836
   351         H         11.8810     20.0214      9.7508
   352         H         22.1011      6.1715      8.3017
   353         H          6.1715      8.3017     22.1011
   354         H         15.7683     10.0661      5.8635
   355         H          5.8635     15.7683     10.0661
   356         H         20.0214      9.7508     11.8810
   357         H          9.7508     11.8810     20.0214
   358         H          7.9864      2.2842     12.1890
   359         H          4.0486     21.7858      0.1540
   360         H          8.3017     22.1011      6.1715

 General Reference for PM7:
 "Optimization of Parameters for Semiempirical Methods VI: More Modifications to the 
 NDDO Approximations and Re-optimization of Parameters", J. J. P. Stewart, J. Mol. Mod., 1:32, 19 (2013)
 https://link.springer.com/article/10.1007/s00894-012-1667-x

           Empirical Formula: C284 H72 N4  =   360 atoms



      RHF CALCULATION, NO. OF DOUBLY OCCUPIED LEVELS = 614


 -------------------------------------------------------------------------------
 PM7 CHARGE=0 NOOPT




     NO PARAMETERS MARKED FOR OPTIMIZATION, SO 1SCF WAS USED  
     SCF FIELD WAS ACHIEVED                                   


                              PM7 CALCULATION
                                                       MOPAC v22.1.0 Linux
                                                       Fri Dec 22 13:04:06 2023




          FINAL HEAT OF FORMATION =       2690.72985 KCAL/MOL =   11258.01371 KJ/MOL
          H.o.F. per unit cell    =        672.68246 KCAL, for 4 unit cells, unit cell = C71 H18 N1



          IONIZATION POTENTIAL    =          5.516093 EV
          HOMO LUMO ENERGIES (EV) =         -5.516 -3.611
          NO. OF FILLED LEVELS    =        614
          MOLECULAR WEIGHT        =       3539.7196

                   THE SYSTEM IS A SOLID


                UNIT CELL TRANSLATION VECTORS

              X                Y              Z
    T1 =    24.0700000      0.0000000      0.0000000
    T2 =     0.0000000     24.0700000      0.0000000
    T3 =     0.0000000      0.0000000     24.0700000

          VOLUME OF UNIT CELL     =      13945.313 CUBIC ANGSTROMS

          DENSITY                 =          0.421 GRAMS/CC
                              A   =         24.070 ANGSTROMS
                              B   =         24.070 ANGSTROMS
                              C   =         24.070 ANGSTROMS
                            ALPHA =         90.000 DEGREES
                            BETA  =         90.000 DEGREES
                            GAMMA =         90.000 DEGREES



          SCF CALCULATIONS        =          1

          WALL-CLOCK TIME         =          1 MINUTE AND 55.281 SECONDS
          COMPUTATION TIME        =         38 MINUTES AND 10.834 SECONDS




   ATOM   CHEMICAL          X               Y               Z
  NUMBER   SYMBOL      (ANGSTROMS)     (ANGSTROMS)     (ANGSTROMS)

     1       N          8.60021100      9.45951000     22.89779100   
     2       N         10.86279100      3.43478900     14.61049000   
     3       N          1.17220900     20.63521100      2.57549000   
     4       N          9.45228900     19.22470900      8.59299000   
     5       C         17.76606700     14.46125600     21.22974000   
     6       C          2.84026000      5.73106700     21.64374400   
     7       C          3.17724000     15.62624400     11.74856700   
     8       C         21.22974000     17.76606700     14.46125600   
     9       C         21.64374400      2.84026000      5.73106700   
    10       C          3.59124400      0.28643300     20.89276000   
    11       C         14.46125600     21.22974000     17.76606700   
    12       C          5.73106700     21.64374400      2.84026000   
    13       C         15.62624400     11.74856700      3.17724000   
    14       C          6.30393300      2.42625600     14.87526000   
    15       C         20.47875600     12.32143300     15.21224000   
    16       C         20.89276000      3.59124400      0.28643300   
    17       C         12.32143300     15.21224000     20.47875600   
    18       C         15.21224000     20.47875600     12.32143300   
    19       C          8.44375600     23.78356700      8.85776000   
    20       C         18.33893300      9.60874400      9.19474000   
    21       C          9.60874400      9.19474000     18.33893300   
    22       C         14.87526000      6.30393300      2.42625600   
    23       C          2.42625600     14.87526000      6.30393300   
    24       C         23.78356700      8.85776000      8.44375600   
    25       C          8.85776000      8.44375600     23.78356700   
    26       C         11.74856700      3.17724000     15.62624400   
    27       C          0.28643300     20.89276000      3.59124400   
    28       C          9.19474000     18.33893300      9.60874400   
    29       C         18.94068300     14.63696700     20.42098800   
    30       C          3.64901200      6.90568300     21.46803300   
    31       C          2.36848800     15.45053300     12.92318300   
    32       C         20.42098800     18.94068300     14.63696700   
    33       C         21.46803300      3.64901200      6.90568300   
    34       C          3.41553300     23.18181700     21.70151200   
    35       C         14.63696700     20.42098800     18.94068300   
    36       C          6.90568300     21.46803300      3.64901200   
    37       C         15.45053300     12.92318300      2.36848800   
    38       C          5.12931700      2.60196700     15.68401200   
    39       C         20.65446700     11.14681700     14.40348800   
    40       C         21.70151200      3.41553300     23.18181700   
    41       C         11.14681700     14.40348800     20.65446700   
    42       C         14.40348800     20.65446700     11.14681700   
    43       C          8.61946700      0.88818300      9.66651200   
    44       C         17.16431700      9.43303300      8.38598800   
    45       C          9.43303300      8.38598800     17.16431700   
    46       C         15.68401200      5.12931700      2.60196700   
    47       C          2.60196700     15.68401200      5.12931700   
    48       C          0.88818300      9.66651200      8.61946700   
    49       C          9.66651200      8.61946700      0.88818300   
    50       C         12.92318300      2.36848800     15.45053300   
    51       C         23.18181700     21.70151200      3.41553300   
    52       C          8.38598800     17.16431700      9.43303300   
    53       C         15.55884800     15.38313700     22.14199300   
    54       C          1.92800700      3.52384800     20.72186300   
    55       C          4.08949300     14.70436300      9.54134800   
    56       C         22.14199300     15.55884800     15.38313700   
    57       C         20.72186300      1.92800700      3.52384800   
    58       C          2.66936300      2.49365200     19.98050700   
    59       C         15.38313700     22.14199300     15.55884800   
    60       C          3.52384800     20.72186300      1.92800700   
    61       C         14.70436300      9.54134800      4.08949300   
    62       C          8.51115200      3.34813700     13.96300700   
    63       C         21.40063700     14.52865200     16.12449300   
    64       C         19.98050700      2.66936300      2.49365200   
    65       C         14.52865200     16.12449300     21.40063700   
    66       C         16.12449300     21.40063700     14.52865200   
    67       C          9.36563700     21.57634800      7.94550700   
    68       C         20.54615200      8.68686300     10.10699300   
    69       C          8.68686300     10.10699300     20.54615200   
    70       C         13.96300700      8.51115200      3.34813700   
    71       C          3.34813700     13.96300700      8.51115200   
    72       C         21.57634800      7.94550700      9.36563700   
    73       C          7.94550700      9.36563700     21.57634800   
    74       C          9.54134800      4.08949300     14.70436300   
    75       C          2.49365200     19.98050700      2.66936300   
    76       C         10.10699300     20.54615200      8.68686300   
    77       C         19.21748800     19.98050700     17.98510400   
    78       C          6.08489600      7.18248800     16.12449300   
    79       C         24.00260400     10.10699300     13.19998800   
    80       C         17.98510400     19.21748800     19.98050700   
    81       C         16.12449300      6.08489600      7.18248800   
    82       C         22.14199300     22.90501200      0.06739600   
    83       C         19.98050700     17.98510400     19.21748800   
    84       C          7.18248800     16.12449300      6.08489600   
    85       C         10.10699300     13.19998800     24.00260400   
    86       C          4.85251200      7.94550700     18.11989600   
    87       C          1.92800700     10.87001200     11.96760400   
    88       C          0.06739600     22.14199300     22.90501200   
    89       C         10.87001200     11.96760400      1.92800700   
    90       C         11.96760400      1.92800700     10.87001200   
    91       C         13.96300700      1.16498800     12.10239600   
    92       C         16.88751200      4.08949300      5.95010400   
    93       C          4.08949300      5.95010400     16.88751200   
    94       C         18.11989600      4.85251200      7.94550700   
    95       C          7.94550700     18.11989600      4.85251200   
    96       C          1.16498800     12.10239600     13.96300700   
    97       C         12.10239600     13.96300700      1.16498800   
    98       C         13.19998800     24.00260400     10.10699300   
    99       C         22.90501200      0.06739600     22.14199300   
   100       C          5.95010400     16.88751200      4.08949300   
   101       C         18.45687600     16.94528000     20.56300100   
   102       C          3.50699900      6.42187600     19.15972000   
   103       C          2.51050100     13.14222000     12.43937600   
   104       C         20.56300100     18.45687600     16.94528000   
   105       C         19.15972000      3.50699900      6.42187600   
   106       C          1.10722000     23.66562400     21.55949900   
   107       C         16.94528000     20.56300100     18.45687600   
   108       C          6.42187600     19.15972000      3.50699900   
   109       C         13.14222000     12.43937600      2.51050100   
   110       C          5.61312400      4.91028000     15.54199900   
   111       C         22.96278000     11.63062400     14.54550100   
   112       C         21.55949900      1.10722000     23.66562400   
   113       C         11.63062400     14.54550100     22.96278000   
   114       C         14.54550100     22.96278000     11.63062400   
   115       C         10.92778000      0.40437600      9.52449900   
   116       C         17.64812400      7.12472000      8.52800100   
   117       C          7.12472000      8.52800100     17.64812400   
   118       C         15.54199900      5.61312400      4.91028000   
   119       C          4.91028000     15.54199900      5.61312400   
   120       C          0.40437600      9.52449900     10.92778000   
   121       C          9.52449900     10.92778000      0.40437600   
   122       C         12.43937600      2.51050100     13.14222000   
   123       C         23.66562400     21.55949900      1.10722000   
   124       C          8.52800100     17.64812400      7.12472000   
   125       C         16.54812500     19.02011400     20.18991600   
   126       C          3.88008400      4.51312500     17.08488600   
   127       C          2.13741600     11.06738600     10.53062500   
   128       C         20.18991600     16.54812500     19.02011400   
   129       C         17.08488600      3.88008400      4.51312500   
   130       C         23.10238600      1.50437500     21.93258400   
   131       C         19.02011400     20.18991600     16.54812500   
   132       C          4.51312500     17.08488600      3.88008400   
   133       C         11.06738600     10.53062500      2.13741600   
   134       C          7.52187500      6.98511400     15.91508400   
   135       C          0.96761400     13.53937500     14.17241600   
   136       C         21.93258400     23.10238600      1.50437500   
   137       C         13.53937500     14.17241600      0.96761400   
   138       C         14.17241600      0.96761400     13.53937500   
   139       C         13.00261400     22.56562500      9.89758400   
   140       C         19.55687500      5.04988600      8.15491600   
   141       C          5.04988600      8.15491600     19.55687500   
   142       C         15.91508400      7.52187500      6.98511400   
   143       C          6.98511400     15.91508400      7.52187500   
   144       C         22.56562500      9.89758400     13.00261400   
   145       C          9.89758400     13.00261400     22.56562500   
   146       C         10.53062500      2.13741600     11.06738600   
   147       C          1.50437500     21.93258400     23.10238600   
   148       C          8.15491600     19.55687500      5.04988600   
   149       C         23.22514300     21.99035200     23.90873100   
   150       C          0.16126900     11.19014300     14.11464800   
   151       C          5.85623100      8.09714800     17.20764300   
   152       C         23.90873100     23.22514300     21.99035200   
   153       C         14.11464800      0.16126900     11.19014300   
   154       C         20.13214800     18.89735700     18.21376900   
   155       C         21.99035200     23.90873100     23.22514300   
   156       C         11.19014300     14.11464800      0.16126900   
   157       C          8.09714800     17.20764300      5.85623100   
   158       C          0.84485700      9.95535200     12.19626900   
   159       C          3.93785200      6.86235700     17.89123100   
   160       C         18.21376900     20.13214800     18.89735700   
   161       C          6.86235700     17.89123100      3.93785200   
   162       C         17.89123100      3.93785200      6.86235700   
   163       C         15.97285200      5.17264300      6.17876900   
   164       C         12.87985700      2.07964800     11.87373100   
   165       C          2.07964800     11.87373100     12.87985700   
   166       C         12.19626900      0.84485700      9.95535200   
   167       C          9.95535200     12.19626900      0.84485700   
   168       C          5.17264300      6.17876900     15.97285200   
   169       C          6.17876900     15.97285200      5.17264300   
   170       C         17.20764300      5.85623100      8.09714800   
   171       C         18.89735700     18.21376900     20.13214800   
   172       C         11.87373100     12.87985700      2.07964800   
   173       C         17.16672400     16.79123200     21.00829600   
   174       C          3.06170400      5.13172400     19.31376800   
   175       C          2.95579600     13.29626800     11.14922400   
   176       C         21.00829600     17.16672400     16.79123200   
   177       C         19.31376800      3.06170400      5.13172400   
   178       C          1.26126800      0.88577600     21.11420400   
   179       C         16.79123200     21.00829600     17.16672400   
   180       C          5.13172400     19.31376800      3.06170400   
   181       C         13.29626800     11.14922400      2.95579600   
   182       C          6.90327600      4.75623200     15.09670400   
   183       C         22.80873200     12.92077600     14.99079600   
   184       C         21.11420400      1.26126800      0.88577600   
   185       C         12.92077600     14.99079600     22.80873200   
   186       C         14.99079600     22.80873200     12.92077600   
   187       C         10.77373200     23.18422400      9.07920400   
   188       C         18.93827600      7.27876800      8.97329600   
   189       C          7.27876800      8.97329600     18.93827600   
   190       C         15.09670400      6.90327600      4.75623200   
   191       C          4.75623200     15.09670400      6.90327600   
   192       C         23.18422400      9.07920400     10.77373200   
   193       C          9.07920400     10.77373200     23.18422400   
   194       C         11.14922400      2.95579600     13.29626800   
   195       C          0.88577600     21.11420400      1.26126800   
   196       C          8.97329600     18.93827600      7.27876800   
   197       C         16.16300500     17.81420700     20.72908400   
   198       C          3.34091600      4.12800500     18.29079300   
   199       C          2.67658400     12.27329300     10.14550500   
   200       C         20.72908400     16.16300500     17.81420700   
   201       C         18.29079300      3.34091600      4.12800500   
   202       C          0.23829300      1.88949500     21.39341600   
   203       C         17.81420700     20.72908400     16.16300500   
   204       C          4.12800500     18.29079300      3.34091600   
   205       C         12.27329300     10.14550500      2.67658400   
   206       C          7.90699500      5.77920700     15.37591600   
   207       C         23.83170700     13.92449500     14.71158400   
   208       C         21.39341600      0.23829300      1.88949500   
   209       C         13.92449500     14.71158400     23.83170700   
   210       C         14.71158400     23.83170700     13.92449500   
   211       C         11.79670700     22.18050500      9.35841600   
   212       C         19.94199500      6.25579300      8.69408400   
   213       C          6.25579300      8.69408400     19.94199500   
   214       C         15.37591600      7.90699500      5.77920700   
   215       C          5.77920700     15.37591600      7.90699500   
   216       C         22.18050500      9.35841600     11.79670700   
   217       C          9.35841600     11.79670700     22.18050500   
   218       C         10.14550500      2.67658400     12.27329300   
   219       C          1.88949500     21.39341600      0.23829300   
   220       C          8.69408400     19.94199500      6.25579300   
   221       C         19.29932600     15.89101400     20.03346100   
   222       C          4.03653900      7.26432600     20.21398600   
   223       C          1.98096100     14.19648600     13.28182600   
   224       C         20.03346100     19.29932600     15.89101400   
   225       C         20.21398600      4.03653900      7.26432600   
   226       C          2.16148600     22.82317400     22.08903900   
   227       C         15.89101400     20.03346100     19.29932600   
   228       C          7.26432600     20.21398600      4.03653900   
   229       C         14.19648600     13.28182600      1.98096100   
   230       C          4.77067400      3.85601400     16.07153900   
   231       C         21.90851400     10.78817400     14.01596100   
   232       C         22.08903900      2.16148600     22.82317400   
   233       C         10.78817400     14.01596100     21.90851400   
   234       C         14.01596100     21.90851400     10.78817400   
   235       C          9.87351400      1.24682600     10.05403900   
   236       C         16.80567400      8.17898600      7.99846100   
   237       C          8.17898600      7.99846100     16.80567400   
   238       C         16.07153900      4.77067400      3.85601400   
   239       C          3.85601400     16.07153900      4.77067400   
   240       C          1.24682600     10.05403900      9.87351400   
   241       C         10.05403900      9.87351400      1.24682600   
   242       C         13.28182600      1.98096100     14.19648600   
   243       C         22.82317400     22.08903900      2.16148600   
   244       C          7.99846100     16.80567400      8.17898600   
   245       C         14.79342200     17.30392300     20.81332900   
   246       C          3.25667100      2.75842200     18.80107700   
   247       C          2.76082900     12.78357700      8.77592200   
   248       C         20.81332900     14.79342200     17.30392300   
   249       C         18.80107700      3.25667100      2.75842200   
   250       C          0.74857700      3.25907800     21.30917100   
   251       C         17.30392300     20.81332900     14.79342200   
   252       C          2.75842200     18.80107700      3.25667100   
   253       C         12.78357700      8.77592200      2.76082900   
   254       C          9.27657800      5.26892300     15.29167100   
   255       C         23.32142300     15.29407800     14.79582900   
   256       C         21.30917100      0.74857700      3.25907800   
   257       C         15.29407800     14.79582900     23.32142300   
   258       C         14.79582900     23.32142300     15.29407800   
   259       C         11.28642300     20.81092200      9.27417100   
   260       C         21.31157800      6.76607700      8.77832900   
   261       C          6.76607700      8.77832900     21.31157800   
   262       C         15.29167100      9.27657800      5.26892300   
   263       C          5.26892300     15.29167100      9.27657800   
   264       C         20.81092200      9.27417100     11.28642300   
   265       C          9.27417100     11.28642300     20.81092200   
   266       C          8.77592200      2.76082900     12.78357700   
   267       C          3.25907800     21.30917100      0.74857700   
   268       C          8.77832900     21.31157800      6.76607700   
   269       C         16.88029100     15.47701000     21.48728900   
   270       C          2.58271100      4.84529100     20.62799000   
   271       C          3.43478900     14.61049000     10.86279100   
   272       C         21.48728900     16.88029100     15.47701000   
   273       C         20.62799000      2.58271100      4.84529100   
   274       C          2.57549000      1.17220900     20.63521100   
   275       C         15.47701000     21.48728900     16.88029100   
   276       C          4.84529100     20.62799000      2.58271100   
   277       C         14.61049000     10.86279100      3.43478900   
   278       C          7.18970900      3.44201000     14.61771100   
   279       C         21.49451000     13.20720900     15.46978900   
   280       C         20.63521100      2.57549000      1.17220900   
   281       C         13.20720900     15.46978900     21.49451000   
   282       C         15.46978900     21.49451000     13.20720900   
   283       C          9.45951000     22.89779100      8.60021100   
   284       C         19.22470900      8.59299000      9.45228900   
   285       C          8.59299000      9.45228900     19.22470900   
   286       C         14.61771100      7.18970900      3.44201000   
   287       C          3.44201000     14.61771100      7.18970900   
   288       C         22.89779100      8.60021100      9.45951000   
   289       H         13.45031600     21.59801100     17.55184400   
   290       H          6.51815600      1.41531600     14.50698900   
   291       H         23.56934400      8.48948900      7.43281600   
   292       H         17.55184400     13.45031600     21.59801100   
   293       H         14.50698900      6.51815600      1.41531600   
   294       H         20.52448900      4.60218400      0.50065600   
   295       H         21.59801100     17.55184400     13.45031600   
   296       H          1.41531600     14.50698900      6.51815600   
   297       H          8.48948900      7.43281600     23.56934400   
   298       H         10.61968400      9.56301100     18.55315600   
   299       H          3.54551100     16.63718400     11.53434400   
   300       H          0.50065600     20.52448900      4.60218400   
   301       H         16.63718400     11.53434400      3.54551100   
   302       H         11.53434400      3.54551100     16.63718400   
   303       H         15.58051100     19.46781600     12.53565600   
   304       H         22.65468400      2.47198900      5.51684400   
   305       H          2.47198900      5.51684400     22.65468400   
   306       H         18.55315600     10.61968400      9.56301100   
   307       H          9.56301100     18.55315600     10.61968400   
   308       H         19.46781600     12.53565600     15.58051100   
   309       H         12.53565600     15.58051100     19.46781600   
   310       H          7.43281600     23.56934400      8.48948900   
   311       H          4.60218400      0.50065600     20.52448900   
   312       H          5.51684400     22.65468400      2.47198900   
   313       H         13.74878400     20.12733400     19.49910700   
   314       H          4.57089300      1.71378400     15.97766600   
   315       H          1.44660700      9.96016600      7.73128400   
   316       H         19.49910700     13.74878400     20.12733400   
   317       H         15.97766600      4.57089300      1.71378400   
   318       H         21.99516600      4.30371600     22.62339300   
   319       H         20.12733400     19.49910700     13.74878400   
   320       H          1.71378400     15.97766600      4.57089300   
   321       H          9.96016600      7.73128400      1.44660700   
   322       H         10.32121600      8.09233400     16.60589300   
   323       H          2.07483400     16.33871600     13.48160700   
   324       H         22.62339300     21.99516600      4.30371600   
   325       H         16.33871600     13.48160700      2.07483400   
   326       H         13.48160700      2.07483400     16.33871600   
   327       H         14.10983400     19.76628400     10.58839300   
   328       H         22.35621600      3.94266600      7.46410700   
   329       H          3.94266600      7.46410700     22.35621600   
   330       H         16.60589300     10.32121600      8.09233400   
   331       H          8.09233400     16.60589300     10.32121600   
   332       H         19.76628400     10.58839300     14.10983400   
   333       H         10.58839300     14.10983400     19.76628400   
   334       H          7.73128400      1.44660700      9.96016600   
   335       H          4.30371600     22.62339300     21.99516600   
   336       H          7.46410700     22.35621600      3.94266600   
   337       H         14.00392600     17.89845200     20.33674300   
   338       H          3.73325700      1.96892600     18.20654800   
   339       H          2.28424300     12.18904800      7.98642600   
   340       H         20.33674300     14.00392600     17.89845200   
   341       H         18.20654800      3.73325700      1.96892600   
   342       H          0.15404800      4.04857400     21.78575700   
   343       H         17.89845200     20.33674300     14.00392600   
   344       H          1.96892600     18.20654800      3.73325700   
   345       H         12.18904800      7.98642600      2.28424300   
   346       H         10.06607400      5.86345200     15.76825700   
   347       H         23.91595200     16.08357400     14.31924300   
   348       H         21.78575700      0.15404800      4.04857400   
   349       H         16.08357400     14.31924300     23.91595200   
   350       H         14.31924300     23.91595200     16.08357400   
   351       H         11.88095200     20.02142600      9.75075700   
   352       H         22.10107400      6.17154800      8.30174300   
   353       H          6.17154800      8.30174300     22.10107400   
   354       H         15.76825700     10.06607400      5.86345200   
   355       H          5.86345200     15.76825700     10.06607400   
   356       H         20.02142600      9.75075700     11.88095200   
   357       H          9.75075700     11.88095200     20.02142600   
   358       H          7.98642600      2.28424300     12.18904800   
   359       H          4.04857400     21.78575700      0.15404800   
   360       H          8.30174300     22.10107400      6.17154800   
   361      Tv         24.07000000      0.00000000      0.00000000   
   362      Tv          0.00000000     24.07000000      0.00000000   
   363      Tv          0.00000000      0.00000000     24.07000000   

                             CARTESIAN COORDINATES

   1    N        8.600211000     9.459510000    22.897791000
   2    N       10.862791000     3.434789000    14.610490000
   3    N        1.172209000    20.635211000     2.575490000
   4    N        9.452289000    19.224709000     8.592990000
   5    C       17.766067000    14.461256000    21.229740000
   6    C        2.840260000     5.731067000    21.643744000
   7    C        3.177240000    15.626244000    11.748567000
   8    C       21.229740000    17.766067000    14.461256000
   9    C       21.643744000     2.840260000     5.731067000
  10    C        3.591244000     0.286433000    20.892760000
  11    C       14.461256000    21.229740000    17.766067000
  12    C        5.731067000    21.643744000     2.840260000
  13    C       15.626244000    11.748567000     3.177240000
  14    C        6.303933000     2.426256000    14.875260000
  15    C       20.478756000    12.321433000    15.212240000
  16    C       20.892760000     3.591244000     0.286433000
  17    C       12.321433000    15.212240000    20.478756000
  18    C       15.212240000    20.478756000    12.321433000
  19    C        8.443756000    23.783567000     8.857760000
  20    C       18.338933000     9.608744000     9.194740000
  21    C        9.608744000     9.194740000    18.338933000
  22    C       14.875260000     6.303933000     2.426256000
  23    C        2.426256000    14.875260000     6.303933000
  24    C       23.783567000     8.857760000     8.443756000
  25    C        8.857760000     8.443756000    23.783567000
  26    C       11.748567000     3.177240000    15.626244000
  27    C        0.286433000    20.892760000     3.591244000
  28    C        9.194740000    18.338933000     9.608744000
  29    C       18.940683000    14.636967000    20.420988000
  30    C        3.649012000     6.905683000    21.468033000
  31    C        2.368488000    15.450533000    12.923183000
  32    C       20.420988000    18.940683000    14.636967000
  33    C       21.468033000     3.649012000     6.905683000
  34    C        3.415533000    23.181817000    21.701512000
  35    C       14.636967000    20.420988000    18.940683000
  36    C        6.905683000    21.468033000     3.649012000
  37    C       15.450533000    12.923183000     2.368488000
  38    C        5.129317000     2.601967000    15.684012000
  39    C       20.654467000    11.146817000    14.403488000
  40    C       21.701512000     3.415533000    23.181817000
  41    C       11.146817000    14.403488000    20.654467000
  42    C       14.403488000    20.654467000    11.146817000
  43    C        8.619467000     0.888183000     9.666512000
  44    C       17.164317000     9.433033000     8.385988000
  45    C        9.433033000     8.385988000    17.164317000
  46    C       15.684012000     5.129317000     2.601967000
  47    C        2.601967000    15.684012000     5.129317000
  48    C        0.888183000     9.666512000     8.619467000
  49    C        9.666512000     8.619467000     0.888183000
  50    C       12.923183000     2.368488000    15.450533000
  51    C       23.181817000    21.701512000     3.415533000
  52    C        8.385988000    17.164317000     9.433033000
  53    C       15.558848000    15.383137000    22.141993000
  54    C        1.928007000     3.523848000    20.721863000
  55    C        4.089493000    14.704363000     9.541348000
  56    C       22.141993000    15.558848000    15.383137000
  57    C       20.721863000     1.928007000     3.523848000
  58    C        2.669363000     2.493652000    19.980507000
  59    C       15.383137000    22.141993000    15.558848000
  60    C        3.523848000    20.721863000     1.928007000
  61    C       14.704363000     9.541348000     4.089493000
  62    C        8.511152000     3.348137000    13.963007000
  63    C       21.400637000    14.528652000    16.124493000
  64    C       19.980507000     2.669363000     2.493652000
  65    C       14.528652000    16.124493000    21.400637000
  66    C       16.124493000    21.400637000    14.528652000
  67    C        9.365637000    21.576348000     7.945507000
  68    C       20.546152000     8.686863000    10.106993000
  69    C        8.686863000    10.106993000    20.546152000
  70    C       13.963007000     8.511152000     3.348137000
  71    C        3.348137000    13.963007000     8.511152000
  72    C       21.576348000     7.945507000     9.365637000
  73    C        7.945507000     9.365637000    21.576348000
[...]
  293          H           0.156866        0.8431     0.84313
  294          H           0.164477        0.8355     0.83552
  295          H           0.159064        0.8409     0.84094
  296          H           0.152287        0.8477     0.84771
  297          H           0.195970        0.8040     0.80403
  298          H           0.150058        0.8499     0.84994
  299          H           0.164098        0.8359     0.83590
  300          H           0.200666        0.7993     0.79933
  301          H           0.165085        0.8349     0.83491
  302          H           0.162378        0.8376     0.83762
  303          H           0.147342        0.8527     0.85266
  304          H           0.156874        0.8431     0.84313
  305          H           0.155883        0.8441     0.84412
  306          H           0.165210        0.8348     0.83479
  307          H           0.165701        0.8343     0.83430
  308          H           0.159411        0.8406     0.84059
  309          H           0.172898        0.8271     0.82710
  310          H           0.147903        0.8521     0.85210
  311          H           0.170261        0.8297     0.82974
  312          H           0.144825        0.8552     0.85517
  313          H           0.152102        0.8479     0.84790
  314          H           0.149171        0.8508     0.85083
  315          H           0.161821        0.8382     0.83818
  316          H           0.161832        0.8382     0.83817
  317          H           0.162626        0.8374     0.83737
  318          H           0.167207        0.8328     0.83279
  319          H           0.164926        0.8351     0.83507
  320          H           0.140436        0.8596     0.85956
  321          H           0.201821        0.7982     0.79818
  322          H           0.174383        0.8256     0.82562
  323          H           0.155797        0.8442     0.84420
  324          H           0.201738        0.7983     0.79826
  325          H           0.166574        0.8334     0.83343
  326          H           0.147490        0.8525     0.85251
  327          H           0.158193        0.8418     0.84181
  328          H           0.168383        0.8316     0.83162
  329          H           0.150483        0.8495     0.84952
  330          H           0.160289        0.8397     0.83971
  331          H           0.150498        0.8495     0.84950
  332          H           0.159418        0.8406     0.84058
  333          H           0.165439        0.8346     0.83456
  334          H           0.150226        0.8498     0.84977
  335          H           0.164751        0.8352     0.83525
  336          H           0.166973        0.8330     0.83303
  337          H           0.170966        0.8290     0.82903
  338          H           0.172574        0.8274     0.82743
  339          H           0.164636        0.8354     0.83536
  340          H           0.167002        0.8330     0.83300
  341          H           0.170175        0.8298     0.82983
  342          H           0.171125        0.8289     0.82888
  343          H           0.169729        0.8303     0.83027
  344          H           0.169071        0.8309     0.83093
  345          H           0.170279        0.8297     0.82972
  346          H           0.173588        0.8264     0.82641
  347          H           0.170569        0.8294     0.82943
  348          H           0.172549        0.8275     0.82745
  349          H           0.171387        0.8286     0.82861
  350          H           0.160192        0.8398     0.83981
  351          H           0.176610        0.8234     0.82339
  352          H           0.170206        0.8298     0.82979
  353          H           0.168930        0.8311     0.83107
  354          H           0.173244        0.8268     0.82676
  355          H           0.167905        0.8321     0.83210
  356          H           0.169604        0.8304     0.83040
  357          H           0.188583        0.8114     0.81142
  358          H           0.167385        0.8326     0.83262
  359          H           0.186086        0.8139     0.81391
  360          H           0.157979        0.8420     0.84202


          ATOMIC ORBITAL ELECTRON POPULATIONS

     Atom    s        px        py        pz   
    1  N   1.52897   1.31549   1.11493   1.16958
    2  N   1.52111   1.16245   1.38491   1.10773
    3  N   1.52787   1.16843   1.30460   1.11067
    4  N   1.52526   1.45906   1.17828   1.11020
    5  C   1.08559   0.98420   1.06731   1.00197
    6  C   1.08316   1.01943   0.98936   1.07266
    7  C   1.08238   1.03369   1.07869   0.99541
    8  C   1.08572   1.00459   0.98524   1.06979
    9  C   1.08740   1.06690   0.99206   0.98042
   10  C   1.08376   1.08061   0.99163   1.02786
   11  C   1.08161   1.08152   1.03993   0.99627
   12  C   1.08913   0.97601   1.05295   0.96752
   13  C   1.08554   1.07433   0.98762   1.01150
   14  C   1.07979   1.00064   1.08158   1.04878
   15  C   1.08446   1.07263   0.98746   1.01370
   16  C   1.08552   1.01192   1.07404   0.98795
   17  C   1.08395   0.99051   1.02742   1.08186
   18  C   1.08570   0.99527   1.06266   0.98234
   19  C   1.08164   1.06745   0.99920   1.02689
   20  C   1.08436   0.98860   1.07699   1.01896
   21  C   1.09010   1.05414   0.96245   0.97386
   22  C   1.08605   1.00135   0.98301   1.06953
   23  C   1.08117   1.07377   1.02948   0.99181
   24  C   1.08571   0.98519   1.00189   1.06693
   25  C   1.10939   0.91900   0.95448   0.91953
   26  C   1.06060   1.00355   1.16939   0.96047
   27  C   1.10960   0.91919   0.91994   0.95664
   28  C   1.06859   1.11510   0.97313   0.95456
   29  C   1.08095   1.00865   1.04937   1.01179
   30  C   1.08165   1.00285   1.00456   1.04281
   31  C   1.08470   0.98505   1.04067   0.99609
   32  C   1.08241   1.00385   1.00501   1.04877
   33  C   1.08215   1.05238   1.00635   1.00569
   34  C   1.08767   1.03948   0.98572   0.96385
   35  C   1.08526   1.03678   0.97984   0.99396
   36  C   1.07628   1.02522   1.06212   1.04839
   37  C   1.08569   1.04735   0.99402   0.98270
   38  C   1.08498   0.99136   1.03444   0.97657
   39  C   1.08282   1.04514   1.00262   0.99870
   40  C   1.08550   0.98378   1.04739   0.99447
   41  C   1.08823   0.98459   0.96087   1.03860
   42  C   1.07735   1.03629   1.05222   1.02131
   43  C   1.07933   1.04791   1.01139   1.01946
   44  C   1.08512   0.99527   1.04264   0.98341
   45  C   1.07738   1.06300   1.04179   1.02287
   46  C   1.08242   1.00175   1.00359   1.04865
   47  C   1.07955   1.03727   1.01325   1.01092
   48  C   1.08099   1.00879   1.01246   1.05103
   49  C   1.07930   1.05980   1.08368   1.03239
   50  C   1.08180   0.97475   0.96035   1.04373
   51  C   1.07975   1.03190   1.05759   1.08161
   52  C   1.07534   0.99807   0.99972   1.04469
   53  C   1.07318   0.96646   0.93933   0.95941
   54  C   1.07253   0.96330   0.96544   0.94665
   55  C   1.05694   1.01468   1.07457   0.96787
   56  C   1.06769   0.98062   0.96761   0.98920
   57  C   1.07605   0.92355   0.95431   0.96681
   58  C   1.06244   1.03868   0.96703   1.00268
   59  C   1.05875   1.07089   1.01459   0.96747
   60  C   1.07112   0.96991   0.94359   0.95409
   61  C   1.06496   1.02229   0.97025   0.99601
   62  C   1.05818   0.96486   1.08720   1.00486
   63  C   1.06980   0.97403   0.96677   0.97471
   64  C   1.06620   0.99286   1.01425   0.97061
   65  C   1.06332   0.96687   1.00080   1.03371
   66  C   1.07443   0.94831   0.91874   0.96349
   67  C   1.06092   1.07302   0.97490   0.99664
   68  C   1.06612   0.96698   1.00926   0.99043
   69  C   1.06897   0.96381   0.96235   0.96982
   70  C   1.07618   0.95466   0.96612   0.92341
   71  C   1.07259   0.94074   0.95942   0.96126
   72  C   1.07168   0.96732   0.96609   0.95465
   73  C   1.06471   1.00484   1.11491   0.79174
   74  C   1.06697   0.78786   0.94024   0.99062
   75  C   1.06004   0.79133   1.01975   1.14901
   76  C   1.07158   0.93225   0.78943   0.96611
   77  C   1.07227   0.96193   0.95742   0.96358
   78  C   1.07281   0.96489   0.94148   0.93608
   79  C   1.06923   0.95895   0.97865   0.97884
   80  C   1.07069   0.95917   0.98080   0.97759
   81  C   1.06947   0.97453   0.95683   0.97674
   82  C   1.06701   0.96312   0.96312   0.95414
   83  C   1.06947   0.97766   0.96162   0.97632
   84  C   1.07210   0.96936   0.97175   0.96150
   85  C   1.07355   0.96016   0.97438   0.95453
   86  C   1.06533   0.99475   1.00241   0.95339
   87  C   1.07039   0.96390   0.96607   0.96047
   88  C   1.07394   0.95538   0.95706   0.97171
   89  C   1.06617   0.96268   0.95306   0.96403
   90  C   1.06957   0.95810   0.95531   0.95986
   91  C   1.06969   0.98001   0.97682   0.95932
   92  C   1.06794   0.97983   0.98144   0.95685
   93  C   1.07176   0.96649   0.95426   0.97584
   94  C   1.06956   0.95935   0.96776   0.96677
   95  C   1.06347   0.99327   0.96914   0.97065
   96  C   1.07107   0.97364   0.95959   0.96965
   97  C   1.07261   0.95949   0.94563   0.95334
   98  C   1.07265   0.96587   0.95911   0.95492
   99  C   1.07254   0.95468   0.96024   0.94740
  100  C   1.06738   0.95247   1.01009   1.00878
  101  C   1.06542   0.98594   0.98709   1.00403
  102  C   1.06441   0.99313   0.98175   0.98357
  103  C   1.06651   0.98315   0.97761   0.98099
  104  C   1.06677   0.99684   0.98416   0.98434
  105  C   1.06590   0.98871   1.00104   0.98340
  106  C   1.06553   0.97335   0.97933   0.97935
  107  C   1.06628   0.97410   0.98006   0.98121
  108  C   1.06430   0.98798   1.00318   1.03727
  109  C   1.06905   0.98236   0.97378   0.96884
  110  C   1.06652   0.97517   0.96878   0.96650
  111  C   1.06552   0.98310   0.98374   0.99546
  112  C   1.06912   0.96974   0.98277   0.97457
  113  C   1.06545   0.97935   0.97913   0.97335
  114  C   1.06249   1.03218   0.98803   0.99383
  115  C   1.06617   0.98399   0.97838   0.99246
  116  C   1.06587   0.98044   0.97941   0.98593
  117  C   1.06609   0.99860   1.02065   0.98570
  118  C   1.06500   0.99909   0.98308   0.98608
  119  C   1.05798   0.97633   1.03659   0.99473
  120  C   1.06603   0.98415   1.00043   0.98703
  121  C   1.06708   1.03481   1.02411   0.98678
  122  C   1.06900   0.95732   0.94016   0.99524
  123  C   1.06715   0.98720   1.03259   1.02187
  124  C   1.07052   0.93643   0.96083   0.99063
  125  C   1.07987   0.96914   0.96103   0.95631
  126  C   1.08167   0.94521   0.97057   0.95760
  127  C   1.06732   1.04530   0.99194   0.96570
  128  C   1.07132   1.01745   0.96835   0.98165
  129  C   1.07568   0.96640   0.98077   0.97158
  130  C   1.06821   0.98958   0.96283   1.03751
  131  C   1.06658   0.99678   1.05376   0.96169
  132  C   1.08812   0.98390   0.93585   0.89638
  133  C   1.05958   1.00098   0.97326   1.09495
  134  C   1.04853   0.95589   1.03110   1.16320
  135  C   1.07547   0.97282   0.96754   0.98874
  136  C   1.06033   1.09186   1.00108   0.97294
  137  C   1.06805   0.96295   1.03964   0.99049
  138  C   1.07868   0.93417   0.94429   0.96134
  139  C   1.06466   0.99979   0.96905   1.06470
  140  C   1.06925   0.96656   0.98493   1.02879
  141  C   1.08186   0.94673   0.93115   0.98020
  142  C   1.07795   0.96501   0.96933   0.96213
  143  C   1.07806   0.94959   0.94012   0.95360
  144  C   1.07556   0.96992   0.98423   0.96921
  145  C   1.08196   0.93739   0.95377   0.96922
  146  C   1.05393   0.96887   1.09279   1.00179
  147  C   1.08018   0.96763   0.95099   0.95902
  148  C   1.05173   1.09788   0.96060   0.99848
  149  C   1.05216   1.00229   1.02159   0.96367
  150  C   1.05557   0.98154   0.99152   1.01603
  151  C   1.06244   0.96797   0.97521   0.99271
  152  C   1.05231   0.98989   0.98726   1.03363
  153  C   1.05799   1.00502   0.98061   0.99142
  154  C   1.05814   1.00770   0.99370   0.98056
  155  C   1.05632   1.01554   0.97910   0.99589
  156  C   1.05188   0.98634   1.03463   0.99023
  157  C   1.04376   1.08662   1.00833   0.98708
  158  C   1.05770   0.99156   1.00268   0.97677
  159  C   1.05331   1.02265   0.99137   0.97978
  160  C   1.05393   0.98924   1.03331   0.99317
  161  C   1.06564   0.98884   0.95868   0.94926
  162  C   1.05785   0.97380   0.99366   0.98727
  163  C   1.05602   1.00144   0.98593   0.97599
  164  C   1.04552   1.01262   1.08267   0.98383
  165  C   1.05530   1.02169   0.98489   0.99169
  166  C   1.05537   0.98157   1.00306   1.02959
  167  C   1.05239   1.01695   0.96061   1.00153
  168  C   1.05074   0.99428   0.99431   1.05592
  169  C   1.05350   0.98750   1.01868   0.98132
  170  C   1.05505   0.98664   0.98074   1.01183
  171  C   1.05723   0.99256   0.97923   1.00799
  172  C   1.05639   0.97776   0.99366   1.01140
  173  C   1.06059   0.97477   0.97525   1.00152
  174  C   1.06037   1.00949   0.97633   0.97735
  175  C   1.06243   1.02298   0.99149   0.97340
  176  C   1.06122   1.01207   0.97433   0.98249
  177  C   1.06031   0.97453   1.00300   0.97595
  178  C   1.06200   0.99215   0.97383   1.02553
  179  C   1.06336   0.99568   1.02608   0.97355
  180  C   1.05838   0.97757   0.95635   0.98231
  181  C   1.06021   0.98957   0.97811   1.03769
  182  C   1.06530   0.97540   1.00005   1.02709
  183  C   1.06153   0.98231   0.97509   1.01033
  184  C   1.06041   1.03763   0.98995   0.97870
  185  C   1.06228   0.97400   1.02603   0.99329
  186  C   1.06038   0.98592   0.96827   0.97182
  187  C   1.06194   0.98643   0.97969   1.02303
  188  C   1.06199   0.97481   0.98729   1.01754
  189  C   1.05844   0.96142   0.98943   0.97668
  190  C   1.06065   1.00271   0.97585   0.97545
  191  C   1.06128   0.97391   0.99366   0.97148
  192  C   1.06064   0.97538   1.00502   0.97663
  193  C   1.07207   0.98760   0.84214   0.97067
  194  C   1.06858   0.97341   1.01323   0.84192
  195  C   1.07183   0.96945   0.99154   0.84633
  196  C   1.06889   0.97326   0.96400   0.83916
  197  C   1.06143   0.96472   0.96678   1.03009
  198  C   1.06042   1.03832   0.96236   0.96993
  199  C   1.06994   0.93124   0.94201   0.96622
  200  C   1.06753   0.96519   0.96790   0.95037
  201  C   1.06419   0.96154   1.00375   0.96596
  202  C   1.07072   0.94286   0.96820   0.93038
  203  C   1.07160   0.93738   0.91709   0.96945
  204  C   1.05078   0.94135   0.99166   1.11830
  205  C   1.07595   0.93207   0.96798   0.87672
  206  C   1.06978   0.95115   0.92368   0.86788
  207  C   1.06509   0.95725   0.96697   0.99147
  208  C   1.07576   0.88063   0.93274   0.96888
  209  C   1.07124   0.96880   0.92680   0.94244
  210  C   1.05456   1.08994   0.97759   0.96192
  211  C   1.06694   0.94033   0.95052   0.92240
  212  C   1.06925   0.96811   0.94625   0.94554
  213  C   1.05461   0.98183   1.07639   0.94349
  214  C   1.06287   1.01638   0.96535   0.96430
  215  C   1.05277   0.97910   1.09718   0.95995
  216  C   1.06414   0.96568   1.00050   0.95948
  217  C   1.06077   1.02900   0.96384   0.96814
  218  C   1.05564   0.94889   1.03700   0.96609
  219  C   1.06222   0.96837   1.01222   0.95945
  220  C   1.04801   1.09182   0.95878   0.96989
  221  C   1.07232   0.96608   0.97144   0.96023
  222  C   1.06987   0.98462   0.98338   0.98065
  223  C   1.06585   0.99277   0.97927   0.99166
  224  C   1.07076   0.96082   0.96731   0.96939
  225  C   1.07271   0.96999   0.95539   0.96244
  226  C   1.06233   0.98500   0.99504   1.00259
  227  C   1.06428   0.98328   1.00393   0.99918
  228  C   1.08110   0.92981   0.95339   0.91336
  229  C   1.06890   0.97245   0.97880   0.97445
  230  C   1.06145   1.00801   0.98662   1.01679
  231  C   1.06944   0.97659   0.97865   0.97708
  232  C   1.06914   0.97453   0.97245   0.97874
  233  C   1.06200   0.99754   1.00649   0.98706
  234  C   1.07367   0.94178   0.96691   0.95010
  235  C   1.07001   0.96596   0.96496   0.95988
  236  C   1.06695   0.98767   0.98015   0.98906
  237  C   1.07838   0.95325   0.91304   0.92761
  238  C   1.07117   0.96850   0.97174   0.97532
  239  C   1.06768   0.98673   0.99132   0.98488
  240  C   1.07232   0.96299   0.95549   0.96836
  241  C   1.08748   0.88059   0.94965   0.90116
  242  C   1.04144   1.07360   1.10550   0.97128
  243  C   1.08638   0.90480   0.88511   0.95175
  244  C   1.03575   1.11570   1.07763   0.97156
  245  C   1.08986   1.02787   1.00014   0.97011
  246  C   1.09053   0.96582   1.02862   0.99832
  247  C   1.07811   1.08335   1.03326   1.02875
  248  C   1.08291   1.03892   1.02782   1.02169
  249  C   1.08838   1.00743   0.98872   1.02858
  250  C   1.08002   1.03019   1.02693   1.06862
  251  C   1.07587   1.04022   1.10643   1.02535
  252  C   1.09803   1.05377   0.96132   0.91345
  253  C   1.07879   1.03792   1.02896   1.08823
  254  C   1.05587   1.04524   1.04690   1.24906
  255  C   1.08463   1.01596   1.02723   1.02249
  256  C   1.07884   1.08810   1.03774   1.02810
  257  C   1.07929   1.02669   1.07725   1.03291
  258  C   1.09173   0.94105   0.99076   1.02810
  259  C   1.06649   1.02599   1.04997   1.18495
  260  C   1.08098   1.02730   1.02801   1.06025
  261  C   1.09465   0.97201   0.94698   1.05436
  262  C   1.08925   0.97936   1.02759   1.00398
  263  C   1.09187   0.98919   0.94083   1.02607
  264  C   1.08714   1.02839   0.99782   1.00882
  265  C   1.07937   1.06742   1.01966   1.01700
  266  C   1.08269   1.02880   1.01104   1.00154
  267  C   1.07730   1.01692   1.08796   1.02710
  268  C   1.08411   0.99467   1.02066   1.00511
  269  C   1.06283   0.97083   0.98466   1.01494
  270  C   1.06609   0.99208   0.96472   0.98223
  271  C   1.06755   0.95714   0.96197   0.96176
  272  C   1.06314   1.00172   0.97090   0.97552
  273  C   1.06224   0.98666   1.02235   0.97360
  274  C   1.06883   0.96447   0.96247   0.95585
  275  C   1.06979   0.95919   0.94621   0.96144
  276  C   1.05201   0.97355   1.00127   1.07873
  277  C   1.06448   0.96862   0.96773   0.98096
  278  C   1.06835   0.95743   0.95898   0.94089
  279  C   1.06556   0.97712   0.96810   0.99172
  280  C   1.06470   0.98253   0.96957   0.96848
  281  C   1.06945   0.96268   0.95394   0.96436
  282  C   1.06107   1.03455   0.99032   0.97327
  283  C   1.06109   0.97398   0.96218   0.98912
  284  C   1.06716   0.96600   0.97026   0.97373
  285  C   1.05096   0.99682   1.08013   0.97558
  286  C   1.06419   1.01061   0.97083   0.98569
  287  C   1.06876   0.98264   0.98373   0.96215
  288  C   1.06242   0.97140   1.01364   0.98248
  289  H   0.83403
  290  H   0.83435
  291  H   0.84728
  292  H   0.84600
  293  H   0.84313
  294  H   0.83552
  295  H   0.84094
  296  H   0.84771
  297  H   0.80403
  298  H   0.84994
  299  H   0.83590
  300  H   0.79933
  301  H   0.83491
  302  H   0.83762
  303  H   0.85266
  304  H   0.84313
  305  H   0.84412
  306  H   0.83479
  307  H   0.83430
  308  H   0.84059
  309  H   0.82710
  310  H   0.85210
  311  H   0.82974
  312  H   0.85517
  313  H   0.84790
  314  H   0.85083
  315  H   0.83818
  316  H   0.83817
  317  H   0.83737
  318  H   0.83279
  319  H   0.83507
  320  H   0.85956
  321  H   0.79818
  322  H   0.82562
  323  H   0.84420
  324  H   0.79826
  325  H   0.83343
  326  H   0.85251
  327  H   0.84181
  328  H   0.83162
  329  H   0.84952
  330  H   0.83971
  331  H   0.84950
  332  H   0.84058
  333  H   0.83456
  334  H   0.84977
  335  H   0.83525
  336  H   0.83303
  337  H   0.82903
  338  H   0.82743
  339  H   0.83536
  340  H   0.83300
  341  H   0.82983
  342  H   0.82888
  343  H   0.83027
  344  H   0.83093
  345  H   0.82972
  346  H   0.82641
  347  H   0.82943
  348  H   0.82745
  349  H   0.82861
  350  H   0.83981
  351  H   0.82339
  352  H   0.82979
  353  H   0.83107
  354  H   0.82676
  355  H   0.83210
  356  H   0.83040
  357  H   0.81142
  358  H   0.83262
  359  H   0.81391
  360  H   0.84202

 **********************
 *                    *
 * JOB ENDED NORMALLY *
 *                    *
 **********************



 TOTAL JOB TIME:           115.35 SECONDS

 == MOPAC DONE ==
