 *******************************************************************************
 **                                                                           **
 **                              MOPAC v22.1.0                                **
 **                                                                           **
 *******************************************************************************
 **          Digital Object Identifier (DOI): 10.5281/zenodo.6511958          **
 **    Visit the DOI location for information on how to cite this program.    **
 *******************************************************************************

                              PM7 CALCULATION RESULTS

 *******************************************************************************
 *  CALCULATION DONE:                                Thu Feb  1 14:46:50 2024  *
 *  PM7        - The PM7 Hamiltonian to be used
 *  NOOPT      - DO NOT OPTIMIZE ANY COORDINATES
 *
 *
 *
 *                 CHARGE ON SYSTEM = 0
 *
 *
 *
 *  T=         - A TIME OF 172800.0 SECONDS REQUESTED
 *  DUMP=N     - RESTART FILE WRITTEN EVERY 7200.0 SECONDS REQUESTED
 *******************************************************************************
PM7 CHARGE=0 NOOPT


   ATOM   CHEMICAL          X               Y               Z
  NUMBER   SYMBOL      (ANGSTROMS)     (ANGSTROMS)     (ANGSTROMS)

     1       N         19.21748800     19.98050700     17.98510400   
     2       N          7.18248800     16.12449300      6.08489600   
     3       N         16.88751200      4.08949300      5.95010400   
     4       N          4.85251200      7.94550700     18.11989600   
     5       C         17.76606700     14.46125600     21.22974000   
     6       C          5.73106700     21.64374400      2.84026000   
     7       C         18.33893300      9.60874400      9.19474000   
     8       C          6.30393300      2.42625600     14.87526000   
     9       C         21.22974000     17.76606700     14.46125600   
    10       C          9.19474000     18.33893300      9.60874400   
    11       C         14.87526000      6.30393300      2.42625600   
    12       C          2.84026000      5.73106700     21.64374400   
    13       C         14.46125600     21.22974000     17.76606700   
    14       C          2.42625600     14.87526000      6.30393300   
    15       C         21.64374400      2.84026000      5.73106700   
    16       C          9.60874400      9.19474000     18.33893300   
    17       C          8.44375600     23.78356700      8.85776000   
    18       C         20.47875600     12.32143300     15.21224000   
    19       C          3.59124400      0.28643300     20.89276000   
    20       C         15.62624400     11.74856700      3.17724000   
    21       C         11.74856700      3.17724000     15.62624400   
    22       C         23.78356700      8.85776000      8.44375600   
    23       C          0.28643300     20.89276000      3.59124400   
    24       C         12.32143300     15.21224000     20.47875600   
    25       C         15.21224000     20.47875600     12.32143300   
    26       C          3.17724000     15.62624400     11.74856700   
    27       C         20.89276000      3.59124400      0.28643300   
    28       C          8.85776000      8.44375600     23.78356700   
    29       C         18.94068300     14.63696700     20.42098800   
    30       C          6.90568300     21.46803300      3.64901200   
    31       C         17.16431700      9.43303300      8.38598800   
    32       C          5.12931700      2.60196700     15.68401200   
    33       C         20.42098800     18.94068300     14.63696700   
    34       C          8.38598800     17.16431700      9.43303300   
    35       C         15.68401200      5.12931700      2.60196700   
    36       C          3.64901200      6.90568300     21.46803300   
    37       C         14.63696700     20.42098800     18.94068300   
    38       C          2.60196700     15.68401200      5.12931700   
    39       C         21.46803300      3.64901200      6.90568300   
    40       C          9.43303300      8.38598800     17.16431700   
    41       C          8.61946700      0.88818300      9.66651200   
    42       C         20.65446700     11.14681700     14.40348800   
    43       C          3.41553300     23.18181700     21.70151200   
    44       C         15.45053300     12.92318300      2.36848800   
    45       C         12.92318300      2.36848800     15.45053300   
    46       C          0.88818300      9.66651200      8.61946700   
    47       C         23.18181700     21.70151200      3.41553300   
    48       C         11.14681700     14.40348800     20.65446700   
    49       C         14.40348800     20.65446700     11.14681700   
    50       C          2.36848800     15.45053300     12.92318300   
    51       C         21.70151200      3.41553300     23.18181700   
    52       C          9.66651200      8.61946700      0.88818300   
    53       C         14.79342200     17.30392300     20.81332900   
    54       C          2.75842200     18.80107700      3.25667100   
    55       C         21.31157800      6.76607700      8.77832900   
    56       C          9.27657800      5.26892300     15.29167100   
    57       C         20.81332900     14.79342200     17.30392300   
    58       C          8.77832900     21.31157800      6.76607700   
    59       C         15.29167100      9.27657800      5.26892300   
    60       C          3.25667100      2.75842200     18.80107700   
    61       C         17.30392300     20.81332900     14.79342200   
    62       C          5.26892300     15.29167100      9.27657800   
    63       C         18.80107700      3.25667100      2.75842200   
    64       C          6.76607700      8.77832900     21.31157800   
    65       C         11.28642300     20.81092200      9.27417100   
    66       C         23.32142300     15.29407800     14.79582900   
    67       C          0.74857700      3.25907800     21.30917100   
    68       C         12.78357700      8.77592200      2.76082900   
    69       C          8.77592200      2.76082900     12.78357700   
    70       C         20.81092200      9.27417100     11.28642300   
    71       C          3.25907800     21.30917100      0.74857700   
    72       C         15.29407800     14.79582900     23.32142300   
    73       C         14.79582900     23.32142300     15.29407800   
    74       C          2.76082900     12.78357700      8.77592200   
    75       C         21.30917100      0.74857700      3.25907800   
    76       C          9.27417100     11.28642300     20.81092200   
    77       C         15.55884800     15.38313700     22.14199300   
    78       C          3.52384800     20.72186300      1.92800700   
    79       C         20.54615200      8.68686300     10.10699300   
    80       C          8.51115200      3.34813700     13.96300700   
    81       C         22.14199300     15.55884800     15.38313700   
    82       C         10.10699300     20.54615200      8.68686300   
    83       C         13.96300700      8.51115200      3.34813700   
    84       C          1.92800700      3.52384800     20.72186300   
    85       C         15.38313700     22.14199300     15.55884800   
    86       C          3.34813700     13.96300700      8.51115200   
    87       C         20.72186300      1.92800700      3.52384800   
    88       C          8.68686300     10.10699300     20.54615200   
    89       C          9.36563700     21.57634800      7.94550700   
    90       C         21.40063700     14.52865200     16.12449300   
    91       C          2.66936300      2.49365200     19.98050700   
    92       C         14.70436300      9.54134800      4.08949300   
    93       C          9.54134800      4.08949300     14.70436300   
    94       C         21.57634800      7.94550700      9.36563700   
    95       C          2.49365200     19.98050700      2.66936300   
    96       C         14.52865200     16.12449300     21.40063700   
    97       C         16.12449300     21.40063700     14.52865200   
    98       C          4.08949300     14.70436300      9.54134800   
    99       C         19.98050700      2.66936300      2.49365200   
   100       C          7.94550700      9.36563700     21.57634800   
   101       C         17.98510400     19.21748800     19.98050700   
   102       C          5.95010400     16.88751200      4.08949300   
   103       C         18.11989600      4.85251200      7.94550700   
   104       C          6.08489600      7.18248800     16.12449300   
   105       C         19.98050700     17.98510400     19.21748800   
   106       C          7.94550700     18.11989600      4.85251200   
   107       C         16.12449300      6.08489600      7.18248800   
   108       C          4.08949300      5.95010400     16.88751200   
   109       C         13.96300700      1.16498800     12.10239600   
   110       C          1.92800700     10.87001200     11.96760400   
   111       C         22.14199300     22.90501200      0.06739600   
   112       C         10.10699300     13.19998800     24.00260400   
   113       C         13.19998800     24.00260400     10.10699300   
   114       C          1.16498800     12.10239600     13.96300700   
   115       C         22.90501200      0.06739600     22.14199300   
   116       C         10.87001200     11.96760400      1.92800700   
   117       C         11.96760400      1.92800700     10.87001200   
   118       C         24.00260400     10.10699300     13.19998800   
   119       C          0.06739600     22.14199300     22.90501200   
   120       C         12.10239600     13.96300700      1.16498800   
   121       C         18.45687600     16.94528000     20.56300100   
   122       C          6.42187600     19.15972000      3.50699900   
   123       C         17.64812400      7.12472000      8.52800100   
   124       C          5.61312400      4.91028000     15.54199900   
   125       C         20.56300100     18.45687600     16.94528000   
   126       C          8.52800100     17.64812400      7.12472000   
   127       C         15.54199900      5.61312400      4.91028000   
   128       C          3.50699900      6.42187600     19.15972000   
   129       C         16.94528000     20.56300100     18.45687600   
   130       C          4.91028000     15.54199900      5.61312400   
   131       C         19.15972000      3.50699900      6.42187600   
   132       C          7.12472000      8.52800100     17.64812400   
   133       C         10.92778000      0.40437600      9.52449900   
   134       C         22.96278000     11.63062400     14.54550100   
   135       C          1.10722000     23.66562400     21.55949900   
   136       C         13.14222000     12.43937600      2.51050100   
   137       C         12.43937600      2.51050100     13.14222000   
   138       C          0.40437600      9.52449900     10.92778000   
   139       C         23.66562400     21.55949900      1.10722000   
   140       C         11.63062400     14.54550100     22.96278000   
   141       C         14.54550100     22.96278000     11.63062400   
   142       C          2.51050100     13.14222000     12.43937600   
   143       C         21.55949900      1.10722000     23.66562400   
   144       C          9.52449900     10.92778000      0.40437600   
   145       C         16.54812500     19.02011400     20.18991600   
   146       C          4.51312500     17.08488600      3.88008400   
   147       C         19.55687500      5.04988600      8.15491600   
   148       C          7.52187500      6.98511400     15.91508400   
   149       C         20.18991600     16.54812500     19.02011400   
   150       C          8.15491600     19.55687500      5.04988600   
   151       C         15.91508400      7.52187500      6.98511400   
   152       C          3.88008400      4.51312500     17.08488600   
   153       C         19.02011400     20.18991600     16.54812500   
   154       C          6.98511400     15.91508400      7.52187500   
   155       C         17.08488600      3.88008400      4.51312500   
   156       C          5.04988600      8.15491600     19.55687500   
   157       C         13.00261400     22.56562500      9.89758400   
   158       C          0.96761400     13.53937500     14.17241600   
   159       C         23.10238600      1.50437500     21.93258400   
   160       C         11.06738600     10.53062500      2.13741600   
   161       C         10.53062500      2.13741600     11.06738600   
   162       C         22.56562500      9.89758400     13.00261400   
   163       C          1.50437500     21.93258400     23.10238600   
   164       C         13.53937500     14.17241600      0.96761400   
   165       C         14.17241600      0.96761400     13.53937500   
   166       C          2.13741600     11.06738600     10.53062500   
   167       C         21.93258400     23.10238600      1.50437500   
   168       C          9.89758400     13.00261400     22.56562500   
   169       C         23.22514300     21.99035200     23.90873100   
   170       C         11.19014300     14.11464800      0.16126900   
   171       C         12.87985700      2.07964800     11.87373100   
   172       C          0.84485700      9.95535200     12.19626900   
   173       C         23.90873100     23.22514300     21.99035200   
   174       C         11.87373100     12.87985700      2.07964800   
   175       C         12.19626900      0.84485700      9.95535200   
   176       C          0.16126900     11.19014300     14.11464800   
   177       C         21.99035200     23.90873100     23.22514300   
   178       C          9.95535200     12.19626900      0.84485700   
   179       C         14.11464800      0.16126900     11.19014300   
   180       C          2.07964800     11.87373100     12.87985700   
   181       C         15.97285200      5.17264300      6.17876900   
   182       C          3.93785200      6.86235700     17.89123100   
   183       C         20.13214800     18.89735700     18.21376900   
   184       C          8.09714800     17.20764300      5.85623100   
   185       C         17.20764300      5.85623100      8.09714800   
   186       C          5.17264300      6.17876900     15.97285200   
   187       C         18.89735700     18.21376900     20.13214800   
   188       C          6.86235700     17.89123100      3.93785200   
   189       C         17.89123100      3.93785200      6.86235700   
   190       C          5.85623100      8.09714800     17.20764300   
   191       C         18.21376900     20.13214800     18.89735700   
   192       C          6.17876900     15.97285200      5.17264300   
   193       C         17.16672400     16.79123200     21.00829600   
   194       C          5.13172400     19.31376800      3.06170400   
   195       C         18.93827600      7.27876800      8.97329600   
   196       C          6.90327600      4.75623200     15.09670400   
   197       C         21.00829600     17.16672400     16.79123200   
   198       C          8.97329600     18.93827600      7.27876800   
   199       C         15.09670400      6.90327600      4.75623200   
   200       C          3.06170400      5.13172400     19.31376800   
   201       C         16.79123200     21.00829600     17.16672400   
   202       C          4.75623200     15.09670400      6.90327600   
   203       C         19.31376800      3.06170400      5.13172400   
   204       C          7.27876800      8.97329600     18.93827600   
   205       C         10.77373200     23.18422400      9.07920400   
   206       C         22.80873200     12.92077600     14.99079600   
   207       C          1.26126800      0.88577600     21.11420400   
   208       C         13.29626800     11.14922400      2.95579600   
   209       C         11.14922400      2.95579600     13.29626800   
   210       C         23.18422400      9.07920400     10.77373200   
   211       C          0.88577600     21.11420400      1.26126800   
   212       C         12.92077600     14.99079600     22.80873200   
   213       C         14.99079600     22.80873200     12.92077600   
   214       C          2.95579600     13.29626800     11.14922400   
   215       C         21.11420400      1.26126800      0.88577600   
   216       C          9.07920400     10.77373200     23.18422400   
   217       C         16.16300500     17.81420700     20.72908400   
   218       C          4.12800500     18.29079300      3.34091600   
   219       C         19.94199500      6.25579300      8.69408400   
   220       C          7.90699500      5.77920700     15.37591600   
   221       C         20.72908400     16.16300500     17.81420700   
   222       C          8.69408400     19.94199500      6.25579300   
   223       C         15.37591600      7.90699500      5.77920700   
   224       C          3.34091600      4.12800500     18.29079300   
   225       C         17.81420700     20.72908400     16.16300500   
   226       C          5.77920700     15.37591600      7.90699500   
   227       C         18.29079300      3.34091600      4.12800500   
   228       C          6.25579300      8.69408400     19.94199500   
   229       C         11.79670700     22.18050500      9.35841600   
   230       C         23.83170700     13.92449500     14.71158400   
   231       C          0.23829300      1.88949500     21.39341600   
   232       C         12.27329300     10.14550500      2.67658400   
   233       C         10.14550500      2.67658400     12.27329300   
   234       C         22.18050500      9.35841600     11.79670700   
   235       C          1.88949500     21.39341600      0.23829300   
   236       C         13.92449500     14.71158400     23.83170700   
   237       C         14.71158400     23.83170700     13.92449500   
   238       C          2.67658400     12.27329300     10.14550500   
   239       C         21.39341600      0.23829300      1.88949500   
   240       C          9.35841600     11.79670700     22.18050500   
   241       C         19.29932600     15.89101400     20.03346100   
   242       C          7.26432600     20.21398600      4.03653900   
   243       C         16.80567400      8.17898600      7.99846100   
   244       C          4.77067400      3.85601400     16.07153900   
   245       C         20.03346100     19.29932600     15.89101400   
   246       C          7.99846100     16.80567400      8.17898600   
   247       C         16.07153900      4.77067400      3.85601400   
   248       C          4.03653900      7.26432600     20.21398600   
   249       C         15.89101400     20.03346100     19.29932600   
   250       C          3.85601400     16.07153900      4.77067400   
   251       C         20.21398600      4.03653900      7.26432600   
   252       C          8.17898600      7.99846100     16.80567400   
   253       C          9.87351400      1.24682600     10.05403900   
   254       C         21.90851400     10.78817400     14.01596100   
   255       C          2.16148600     22.82317400     22.08903900   
   256       C         14.19648600     13.28182600      1.98096100   
   257       C         13.28182600      1.98096100     14.19648600   
   258       C          1.24682600     10.05403900      9.87351400   
   259       C         22.82317400     22.08903900      2.16148600   
   260       C         10.78817400     14.01596100     21.90851400   
   261       C         14.01596100     21.90851400     10.78817400   
   262       C          1.98096100     14.19648600     13.28182600   
   263       C         22.08903900      2.16148600     22.82317400   
   264       C         10.05403900      9.87351400      1.24682600   
   265       C         16.88029100     15.47701000     21.48728900   
   266       C          4.84529100     20.62799000      2.58271100   
   267       C         19.22470900      8.59299000      9.45228900   
   268       C          7.18970900      3.44201000     14.61771100   
   269       C         21.48728900     16.88029100     15.47701000   
   270       C          9.45228900     19.22470900      8.59299000   
   271       C         14.61771100      7.18970900      3.44201000   
   272       C          2.58271100      4.84529100     20.62799000   
   273       C         15.47701000     21.48728900     16.88029100   
   274       C          3.44201000     14.61771100      7.18970900   
   275       C         20.62799000      2.58271100      4.84529100   
   276       C          8.59299000      9.45228900     19.22470900   
   277       C          9.45951000     22.89779100      8.60021100   
   278       C         21.49451000     13.20720900     15.46978900   
   279       C          2.57549000      1.17220900     20.63521100   
   280       C         14.61049000     10.86279100      3.43478900   
   281       C         10.86279100      3.43478900     14.61049000   
   282       C         22.89779100      8.60021100      9.45951000   
   283       C          1.17220900     20.63521100      2.57549000   
   284       C         13.20720900     15.46978900     21.49451000   
   285       C         15.46978900     21.49451000     13.20720900   
   286       C          3.43478900     14.61049000     10.86279100   
   287       C         20.63521100      2.57549000      1.17220900   
   288       C          8.60021100      9.45951000     22.89779100   
   289       H         13.45031600     21.59801100     17.55184400   
   290       H          1.41531600     14.50698900      6.51815600   
   291       H         22.65468400      2.47198900      5.51684400   
   292       H         10.61968400      9.56301100     18.55315600   
   293       H         17.55184400     13.45031600     21.59801100   
   294       H          5.51684400     22.65468400      2.47198900   
   295       H         18.55315600     10.61968400      9.56301100   
   296       H          6.51815600      1.41531600     14.50698900   
   297       H         21.59801100     17.55184400     13.45031600   
   298       H          9.56301100     18.55315600     10.61968400   
   299       H         14.50698900      6.51815600      1.41531600   
   300       H          2.47198900      5.51684400     22.65468400   
   301       H         15.58051100     19.46781600     12.53565600   
   302       H          3.54551100     16.63718400     11.53434400   
   303       H         20.52448900      4.60218400      0.50065600   
   304       H          8.48948900      7.43281600     23.56934400   
   305       H          7.43281600     23.56934400      8.48948900   
   306       H         19.46781600     12.53565600     15.58051100   
   307       H          4.60218400      0.50065600     20.52448900   
   308       H         16.63718400     11.53434400      3.54551100   
   309       H         11.53434400      3.54551100     16.63718400   
   310       H         23.56934400      8.48948900      7.43281600   
   311       H          0.50065600     20.52448900      4.60218400   
   312       H         12.53565600     15.58051100     19.46781600   
   313       H         13.74878400     20.12733400     19.49910700   
   314       H          1.71378400     15.97766600      4.57089300   
   315       H         22.35621600      3.94266600      7.46410700   
   316       H         10.32121600      8.09233400     16.60589300   
   317       H         19.49910700     13.74878400     20.12733400   
   318       H          7.46410700     22.35621600      3.94266600   
   319       H         16.60589300     10.32121600      8.09233400   
   320       H          4.57089300      1.71378400     15.97766600   
   321       H         20.12733400     19.49910700     13.74878400   
   322       H          8.09233400     16.60589300     10.32121600   
   323       H         15.97766600      4.57089300      1.71378400   
   324       H          3.94266600      7.46410700     22.35621600   
   325       H         14.10983400     19.76628400     10.58839300   
   326       H          2.07483400     16.33871600     13.48160700   
   327       H         21.99516600      4.30371600     22.62339300   
   328       H          9.96016600      7.73128400      1.44660700   
   329       H          7.73128400      1.44660700      9.96016600   
   330       H         19.76628400     10.58839300     14.10983400   
   331       H          4.30371600     22.62339300     21.99516600   
   332       H         16.33871600     13.48160700      2.07483400   
   333       H         13.48160700      2.07483400     16.33871600   
   334       H          1.44660700      9.96016600      7.73128400   
   335       H         22.62339300     21.99516600      4.30371600   
   336       H         10.58839300     14.10983400     19.76628400   
   337       H         14.00392600     17.89845200     20.33674300   
   338       H          1.96892600     18.20654800      3.73325700   
   339       H         22.10107400      6.17154800      8.30174300   
   340       H         10.06607400      5.86345200     15.76825700   
   341       H         20.33674300     14.00392600     17.89845200   
   342       H          8.30174300     22.10107400      6.17154800   
   343       H         15.76825700     10.06607400      5.86345200   
   344       H          3.73325700      1.96892600     18.20654800   
   345       H         17.89845200     20.33674300     14.00392600   
   346       H          5.86345200     15.76825700     10.06607400   
   347       H         18.20654800      3.73325700      1.96892600   
   348       H          6.17154800      8.30174300     22.10107400   
   349       H         11.88095200     20.02142600      9.75075700   
   350       H         23.91595200     16.08357400     14.31924300   
   351       H          0.15404800      4.04857400     21.78575700   
   352       H         12.18904800      7.98642600      2.28424300   
   353       H          7.98642600      2.28424300     12.18904800   
   354       H         20.02142600      9.75075700     11.88095200   
   355       H          4.04857400     21.78575700      0.15404800   
   356       H         16.08357400     14.31924300     23.91595200   
   357       H         14.31924300     23.91595200     16.08357400   
   358       H          2.28424300     12.18904800      7.98642600   
   359       H         21.78575700      0.15404800      4.04857400   
   360       H          9.75075700     11.88095200     20.02142600   
   361      Tv         24.07000000      0.00000000      0.00000000   
   362      Tv          0.00000000     24.07000000      0.00000000   
   363      Tv          0.00000000      0.00000000     24.07000000   


                   THE SYSTEM IS A SOLID


                UNIT CELL TRANSLATION VECTORS

              X                Y              Z
    T1 =    24.0700000      0.0000000      0.0000000
    T2 =     0.0000000     24.0700000      0.0000000
    T3 =     0.0000000      0.0000000     24.0700000


          CARTESIAN COORDINATES 

    NO.       ATOM           X           Y           Z

     1         N         19.2175     19.9805     17.9851
     2         N          7.1825     16.1245      6.0849
     3         N         16.8875      4.0895      5.9501
     4         N          4.8525      7.9455     18.1199
     5         C         17.7661     14.4613     21.2297
     6         C          5.7311     21.6437      2.8403
     7         C         18.3389      9.6087      9.1947
     8         C          6.3039      2.4263     14.8753
     9         C         21.2297     17.7661     14.4613
    10         C          9.1947     18.3389      9.6087
    11         C         14.8753      6.3039      2.4263
    12         C          2.8403      5.7311     21.6437
    13         C         14.4613     21.2297     17.7661
    14         C          2.4263     14.8753      6.3039
    15         C         21.6437      2.8403      5.7311
    16         C          9.6087      9.1947     18.3389
    17         C          8.4438     23.7836      8.8578
    18         C         20.4788     12.3214     15.2122
    19         C          3.5912      0.2864     20.8928
    20         C         15.6262     11.7486      3.1772
    21         C         11.7486      3.1772     15.6262
    22         C         23.7836      8.8578      8.4438
    23         C          0.2864     20.8928      3.5912
    24         C         12.3214     15.2122     20.4788
    25         C         15.2122     20.4788     12.3214
    26         C          3.1772     15.6262     11.7486
    27         C         20.8928      3.5912      0.2864
    28         C          8.8578      8.4438     23.7836
    29         C         18.9407     14.6370     20.4210
    30         C          6.9057     21.4680      3.6490
    31         C         17.1643      9.4330      8.3860
    32         C          5.1293      2.6020     15.6840
    33         C         20.4210     18.9407     14.6370
    34         C          8.3860     17.1643      9.4330
    35         C         15.6840      5.1293      2.6020
    36         C          3.6490      6.9057     21.4680
    37         C         14.6370     20.4210     18.9407
    38         C          2.6020     15.6840      5.1293
    39         C         21.4680      3.6490      6.9057
    40         C          9.4330      8.3860     17.1643
    41         C          8.6195      0.8882      9.6665
    42         C         20.6545     11.1468     14.4035
    43         C          3.4155     23.1818     21.7015
    44         C         15.4505     12.9232      2.3685
    45         C         12.9232      2.3685     15.4505
    46         C          0.8882      9.6665      8.6195
    47         C         23.1818     21.7015      3.4155
    48         C         11.1468     14.4035     20.6545
    49         C         14.4035     20.6545     11.1468
    50         C          2.3685     15.4505     12.9232
    51         C         21.7015      3.4155     23.1818
    52         C          9.6665      8.6195      0.8882
    53         C         14.7934     17.3039     20.8133
    54         C          2.7584     18.8011      3.2567
    55         C         21.3116      6.7661      8.7783
    56         C          9.2766      5.2689     15.2917
    57         C         20.8133     14.7934     17.3039
    58         C          8.7783     21.3116      6.7661
    59         C         15.2917      9.2766      5.2689
    60         C          3.2567      2.7584     18.8011
    61         C         17.3039     20.8133     14.7934
    62         C          5.2689     15.2917      9.2766
    63         C         18.8011      3.2567      2.7584
    64         C          6.7661      8.7783     21.3116
    65         C         11.2864     20.8109      9.2742
    66         C         23.3214     15.2941     14.7958
    67         C          0.7486      3.2591     21.3092
    68         C         12.7836      8.7759      2.7608
    69         C          8.7759      2.7608     12.7836
    70         C         20.8109      9.2742     11.2864
    71         C          3.2591     21.3092      0.7486
    72         C         15.2941     14.7958     23.3214
    73         C         14.7958     23.3214     15.2941
    74         C          2.7608     12.7836      8.7759
    75         C         21.3092      0.7486      3.2591
    76         C          9.2742     11.2864     20.8109
    77         C         15.5588     15.3831     22.1420
    78         C          3.5238     20.7219      1.9280
    79         C         20.5462      8.6869     10.1070
    80         C          8.5112      3.3481     13.9630
    81         C         22.1420     15.5588     15.3831
    82         C         10.1070     20.5462      8.6869
    83         C         13.9630      8.5112      3.3481
    84         C          1.9280      3.5238     20.7219
    85         C         15.3831     22.1420     15.5588
    86         C          3.3481     13.9630      8.5112
    87         C         20.7219      1.9280      3.5238
    88         C          8.6869     10.1070     20.5462
    89         C          9.3656     21.5763      7.9455
    90         C         21.4006     14.5287     16.1245
    91         C          2.6694      2.4937     19.9805
    92         C         14.7044      9.5413      4.0895
    93         C          9.5413      4.0895     14.7044
    94         C         21.5763      7.9455      9.3656
    95         C          2.4937     19.9805      2.6694
    96         C         14.5287     16.1245     21.4006
    97         C         16.1245     21.4006     14.5287
    98         C          4.0895     14.7044      9.5413
    99         C         19.9805      2.6694      2.4937
   100         C          7.9455      9.3656     21.5763
   101         C         17.9851     19.2175     19.9805
   102         C          5.9501     16.8875      4.0895
   103         C         18.1199      4.8525      7.9455
   104         C          6.0849      7.1825     16.1245
   105         C         19.9805     17.9851     19.2175
   106         C          7.9455     18.1199      4.8525
   107         C         16.1245      6.0849      7.1825
   108         C          4.0895      5.9501     16.8875
   109         C         13.9630      1.1650     12.1024
   110         C          1.9280     10.8700     11.9676
   111         C         22.1420     22.9050      0.0674
   112         C         10.1070     13.2000     24.0026
   113         C         13.2000     24.0026     10.1070
   114         C          1.1650     12.1024     13.9630
   115         C         22.9050      0.0674     22.1420
   116         C         10.8700     11.9676      1.9280
   117         C         11.9676      1.9280     10.8700
   118         C         24.0026     10.1070     13.2000
   119         C          0.0674     22.1420     22.9050
   120         C         12.1024     13.9630      1.1650
   121         C         18.4569     16.9453     20.5630
   122         C          6.4219     19.1597      3.5070
   123         C         17.6481      7.1247      8.5280
   124         C          5.6131      4.9103     15.5420
   125         C         20.5630     18.4569     16.9453
   126         C          8.5280     17.6481      7.1247
   127         C         15.5420      5.6131      4.9103
   128         C          3.5070      6.4219     19.1597
   129         C         16.9453     20.5630     18.4569
   130         C          4.9103     15.5420      5.6131
   131         C         19.1597      3.5070      6.4219
   132         C          7.1247      8.5280     17.6481
   133         C         10.9278      0.4044      9.5245
   134         C         22.9628     11.6306     14.5455
   135         C          1.1072     23.6656     21.5595
   136         C         13.1422     12.4394      2.5105
   137         C         12.4394      2.5105     13.1422
   138         C          0.4044      9.5245     10.9278
   139         C         23.6656     21.5595      1.1072
   140         C         11.6306     14.5455     22.9628
   141         C         14.5455     22.9628     11.6306
   142         C          2.5105     13.1422     12.4394
   143         C         21.5595      1.1072     23.6656
   144         C          9.5245     10.9278      0.4044
   145         C         16.5481     19.0201     20.1899
   146         C          4.5131     17.0849      3.8801
   147         C         19.5569      5.0499      8.1549
   148         C          7.5219      6.9851     15.9151
   149         C         20.1899     16.5481     19.0201
   150         C          8.1549     19.5569      5.0499
   151         C         15.9151      7.5219      6.9851
   152         C          3.8801      4.5131     17.0849
   153         C         19.0201     20.1899     16.5481
   154         C          6.9851     15.9151      7.5219
   155         C         17.0849      3.8801      4.5131
   156         C          5.0499      8.1549     19.5569
   157         C         13.0026     22.5656      9.8976
   158         C          0.9676     13.5394     14.1724
   159         C         23.1024      1.5044     21.9326
   160         C         11.0674     10.5306      2.1374
   161         C         10.5306      2.1374     11.0674
   162         C         22.5656      9.8976     13.0026
   163         C          1.5044     21.9326     23.1024
   164         C         13.5394     14.1724      0.9676
   165         C         14.1724      0.9676     13.5394
   166         C          2.1374     11.0674     10.5306
   167         C         21.9326     23.1024      1.5044
   168         C          9.8976     13.0026     22.5656
   169         C         23.2251     21.9904     23.9087
   170         C         11.1901     14.1146      0.1613
   171         C         12.8799      2.0796     11.8737
   172         C          0.8449      9.9554     12.1963
   173         C         23.9087     23.2251     21.9904
   174         C         11.8737     12.8799      2.0796
   175         C         12.1963      0.8449      9.9554
   176         C          0.1613     11.1901     14.1146
   177         C         21.9904     23.9087     23.2251
   178         C          9.9554     12.1963      0.8449
   179         C         14.1146      0.1613     11.1901
   180         C          2.0796     11.8737     12.8799
   181         C         15.9729      5.1726      6.1788
   182         C          3.9379      6.8624     17.8912
   183         C         20.1321     18.8974     18.2138
   184         C          8.0971     17.2076      5.8562
   185         C         17.2076      5.8562      8.0971
   186         C          5.1726      6.1788     15.9729
   187         C         18.8974     18.2138     20.1321
   188         C          6.8624     17.8912      3.9379
   189         C         17.8912      3.9379      6.8624
   190         C          5.8562      8.0971     17.2076
   191         C         18.2138     20.1321     18.8974
   192         C          6.1788     15.9729      5.1726
   193         C         17.1667     16.7912     21.0083
   194         C          5.1317     19.3138      3.0617
   195         C         18.9383      7.2788      8.9733
   196         C          6.9033      4.7562     15.0967
   197         C         21.0083     17.1667     16.7912
   198         C          8.9733     18.9383      7.2788
   199         C         15.0967      6.9033      4.7562
   200         C          3.0617      5.1317     19.3138
   201         C         16.7912     21.0083     17.1667
   202         C          4.7562     15.0967      6.9033
   203         C         19.3138      3.0617      5.1317
   204         C          7.2788      8.9733     18.9383
   205         C         10.7737     23.1842      9.0792
   206         C         22.8087     12.9208     14.9908
   207         C          1.2613      0.8858     21.1142
   208         C         13.2963     11.1492      2.9558
   209         C         11.1492      2.9558     13.2963
   210         C         23.1842      9.0792     10.7737
   211         C          0.8858     21.1142      1.2613
   212         C         12.9208     14.9908     22.8087
   213         C         14.9908     22.8087     12.9208
   214         C          2.9558     13.2963     11.1492
   215         C         21.1142      1.2613      0.8858
   216         C          9.0792     10.7737     23.1842
   217         C         16.1630     17.8142     20.7291
   218         C          4.1280     18.2908      3.3409
   219         C         19.9420      6.2558      8.6941
   220         C          7.9070      5.7792     15.3759
   221         C         20.7291     16.1630     17.8142
   222         C          8.6941     19.9420      6.2558
   223         C         15.3759      7.9070      5.7792
   224         C          3.3409      4.1280     18.2908
   225         C         17.8142     20.7291     16.1630
   226         C          5.7792     15.3759      7.9070
   227         C         18.2908      3.3409      4.1280
   228         C          6.2558      8.6941     19.9420
   229         C         11.7967     22.1805      9.3584
   230         C         23.8317     13.9245     14.7116
   231         C          0.2383      1.8895     21.3934
   232         C         12.2733     10.1455      2.6766
   233         C         10.1455      2.6766     12.2733
   234         C         22.1805      9.3584     11.7967
   235         C          1.8895     21.3934      0.2383
   236         C         13.9245     14.7116     23.8317
   237         C         14.7116     23.8317     13.9245
   238         C          2.6766     12.2733     10.1455
   239         C         21.3934      0.2383      1.8895
   240         C          9.3584     11.7967     22.1805
   241         C         19.2993     15.8910     20.0335
   242         C          7.2643     20.2140      4.0365
   243         C         16.8057      8.1790      7.9985
   244         C          4.7707      3.8560     16.0715
   245         C         20.0335     19.2993     15.8910
   246         C          7.9985     16.8057      8.1790
   247         C         16.0715      4.7707      3.8560
   248         C          4.0365      7.2643     20.2140
   249         C         15.8910     20.0335     19.2993
   250         C          3.8560     16.0715      4.7707
   251         C         20.2140      4.0365      7.2643
   252         C          8.1790      7.9985     16.8057
   253         C          9.8735      1.2468     10.0540
   254         C         21.9085     10.7882     14.0160
   255         C          2.1615     22.8232     22.0890
   256         C         14.1965     13.2818      1.9810
   257         C         13.2818      1.9810     14.1965
   258         C          1.2468     10.0540      9.8735
   259         C         22.8232     22.0890      2.1615
   260         C         10.7882     14.0160     21.9085
   261         C         14.0160     21.9085     10.7882
   262         C          1.9810     14.1965     13.2818
   263         C         22.0890      2.1615     22.8232
   264         C         10.0540      9.8735      1.2468
   265         C         16.8803     15.4770     21.4873
   266         C          4.8453     20.6280      2.5827
   267         C         19.2247      8.5930      9.4523
   268         C          7.1897      3.4420     14.6177
   269         C         21.4873     16.8803     15.4770
   270         C          9.4523     19.2247      8.5930
   271         C         14.6177      7.1897      3.4420
   272         C          2.5827      4.8453     20.6280
   273         C         15.4770     21.4873     16.8803
   274         C          3.4420     14.6177      7.1897
   275         C         20.6280      2.5827      4.8453
   276         C          8.5930      9.4523     19.2247
   277         C          9.4595     22.8978      8.6002
   278         C         21.4945     13.2072     15.4698
   279         C          2.5755      1.1722     20.6352
   280         C         14.6105     10.8628      3.4348
   281         C         10.8628      3.4348     14.6105
   282         C         22.8978      8.6002      9.4595
   283         C          1.1722     20.6352      2.5755
   284         C         13.2072     15.4698     21.4945
   285         C         15.4698     21.4945     13.2072
   286         C          3.4348     14.6105     10.8628
   287         C         20.6352      2.5755      1.1722
   288         C          8.6002      9.4595     22.8978
   289         H         13.4503     21.5980     17.5518
   290         H          1.4153     14.5070      6.5182
   291         H         22.6547      2.4720      5.5168
   292         H         10.6197      9.5630     18.5532
   293         H         17.5518     13.4503     21.5980
   294         H          5.5168     22.6547      2.4720
   295         H         18.5532     10.6197      9.5630
   296         H          6.5182      1.4153     14.5070
   297         H         21.5980     17.5518     13.4503
   298         H          9.5630     18.5532     10.6197
   299         H         14.5070      6.5182      1.4153
   300         H          2.4720      5.5168     22.6547
   301         H         15.5805     19.4678     12.5357
   302         H          3.5455     16.6372     11.5343
   303         H         20.5245      4.6022      0.5007
   304         H          8.4895      7.4328     23.5693
   305         H          7.4328     23.5693      8.4895
   306         H         19.4678     12.5357     15.5805
   307         H          4.6022      0.5007     20.5245
   308         H         16.6372     11.5343      3.5455
   309         H         11.5343      3.5455     16.6372
   310         H         23.5693      8.4895      7.4328
   311         H          0.5007     20.5245      4.6022
   312         H         12.5357     15.5805     19.4678
   313         H         13.7488     20.1273     19.4991
   314         H          1.7138     15.9777      4.5709
   315         H         22.3562      3.9427      7.4641
   316         H         10.3212      8.0923     16.6059
   317         H         19.4991     13.7488     20.1273
   318         H          7.4641     22.3562      3.9427
   319         H         16.6059     10.3212      8.0923
   320         H          4.5709      1.7138     15.9777
   321         H         20.1273     19.4991     13.7488
   322         H          8.0923     16.6059     10.3212
   323         H         15.9777      4.5709      1.7138
   324         H          3.9427      7.4641     22.3562
   325         H         14.1098     19.7663     10.5884
   326         H          2.0748     16.3387     13.4816
   327         H         21.9952      4.3037     22.6234
   328         H          9.9602      7.7313      1.4466
   329         H          7.7313      1.4466      9.9602
   330         H         19.7663     10.5884     14.1098
   331         H          4.3037     22.6234     21.9952
   332         H         16.3387     13.4816      2.0748
   333         H         13.4816      2.0748     16.3387
   334         H          1.4466      9.9602      7.7313
   335         H         22.6234     21.9952      4.3037
   336         H         10.5884     14.1098     19.7663
   337         H         14.0039     17.8985     20.3367
   338         H          1.9689     18.2065      3.7333
   339         H         22.1011      6.1715      8.3017
   340         H         10.0661      5.8635     15.7683
   341         H         20.3367     14.0039     17.8985
   342         H          8.3017     22.1011      6.1715
   343         H         15.7683     10.0661      5.8635
   344         H          3.7333      1.9689     18.2065
   345         H         17.8985     20.3367     14.0039
   346         H          5.8635     15.7683     10.0661
   347         H         18.2065      3.7333      1.9689
   348         H          6.1715      8.3017     22.1011
   349         H         11.8810     20.0214      9.7508
   350         H         23.9160     16.0836     14.3192
   351         H          0.1540      4.0486     21.7858
   352         H         12.1890      7.9864      2.2842
   353         H          7.9864      2.2842     12.1890
   354         H         20.0214      9.7508     11.8810
   355         H          4.0486     21.7858      0.1540
   356         H         16.0836     14.3192     23.9160
   357         H         14.3192     23.9160     16.0836
   358         H          2.2842     12.1890      7.9864
   359         H         21.7858      0.1540      4.0486
   360         H          9.7508     11.8810     20.0214

 General Reference for PM7:
 "Optimization of Parameters for Semiempirical Methods VI: More Modifications to the 
 NDDO Approximations and Re-optimization of Parameters", J. J. P. Stewart, J. Mol. Mod., 1:32, 19 (2013)
 https://link.springer.com/article/10.1007/s00894-012-1667-x

           Empirical Formula: C284 H72 N4  =   360 atoms



      RHF CALCULATION, NO. OF DOUBLY OCCUPIED LEVELS = 614


 -------------------------------------------------------------------------------
 PM7 CHARGE=0 NOOPT




     NO PARAMETERS MARKED FOR OPTIMIZATION, SO 1SCF WAS USED  
     SCF FIELD WAS ACHIEVED                                   


                              PM7 CALCULATION
                                                       MOPAC v22.1.0 Linux
                                                       Thu Feb  1 14:47:11 2024




          FINAL HEAT OF FORMATION =       2702.13720 KCAL/MOL =   11305.74203 KJ/MOL
          H.o.F. per unit cell    =        675.53430 KCAL, for 4 unit cells, unit cell = C71 H18 N1



          IONIZATION POTENTIAL    =          5.017061 EV
          HOMO LUMO ENERGIES (EV) =         -5.017 -4.021
          NO. OF FILLED LEVELS    =        614
          MOLECULAR WEIGHT        =       3539.7196

                   THE SYSTEM IS A SOLID


                UNIT CELL TRANSLATION VECTORS

              X                Y              Z
    T1 =    24.0700000      0.0000000      0.0000000
    T2 =     0.0000000     24.0700000      0.0000000
    T3 =     0.0000000      0.0000000     24.0700000

          VOLUME OF UNIT CELL     =      13945.313 CUBIC ANGSTROMS

          DENSITY                 =          0.421 GRAMS/CC
                              A   =         24.070 ANGSTROMS
                              B   =         24.070 ANGSTROMS
                              C   =         24.070 ANGSTROMS
                            ALPHA =         90.000 DEGREES
                            BETA  =         90.000 DEGREES
                            GAMMA =         90.000 DEGREES



          SCF CALCULATIONS        =          1

          WALL-CLOCK TIME         =     21.133 SECONDS
          COMPUTATION TIME        =     21.127 SECONDS




   ATOM   CHEMICAL          X               Y               Z
  NUMBER   SYMBOL      (ANGSTROMS)     (ANGSTROMS)     (ANGSTROMS)

     1       N         19.21748800     19.98050700     17.98510400   
     2       N          7.18248800     16.12449300      6.08489600   
     3       N         16.88751200      4.08949300      5.95010400   
     4       N          4.85251200      7.94550700     18.11989600   
     5       C         17.76606700     14.46125600     21.22974000   
     6       C          5.73106700     21.64374400      2.84026000   
     7       C         18.33893300      9.60874400      9.19474000   
     8       C          6.30393300      2.42625600     14.87526000   
     9       C         21.22974000     17.76606700     14.46125600   
    10       C          9.19474000     18.33893300      9.60874400   
    11       C         14.87526000      6.30393300      2.42625600   
    12       C          2.84026000      5.73106700     21.64374400   
    13       C         14.46125600     21.22974000     17.76606700   
    14       C          2.42625600     14.87526000      6.30393300   
    15       C         21.64374400      2.84026000      5.73106700   
    16       C          9.60874400      9.19474000     18.33893300   
    17       C          8.44375600     23.78356700      8.85776000   
    18       C         20.47875600     12.32143300     15.21224000   
    19       C          3.59124400      0.28643300     20.89276000   
    20       C         15.62624400     11.74856700      3.17724000   
    21       C         11.74856700      3.17724000     15.62624400   
    22       C         23.78356700      8.85776000      8.44375600   
    23       C          0.28643300     20.89276000      3.59124400   
    24       C         12.32143300     15.21224000     20.47875600   
    25       C         15.21224000     20.47875600     12.32143300   
    26       C          3.17724000     15.62624400     11.74856700   
    27       C         20.89276000      3.59124400      0.28643300   
    28       C          8.85776000      8.44375600     23.78356700   
    29       C         18.94068300     14.63696700     20.42098800   
    30       C          6.90568300     21.46803300      3.64901200   
    31       C         17.16431700      9.43303300      8.38598800   
    32       C          5.12931700      2.60196700     15.68401200   
    33       C         20.42098800     18.94068300     14.63696700   
    34       C          8.38598800     17.16431700      9.43303300   
    35       C         15.68401200      5.12931700      2.60196700   
    36       C          3.64901200      6.90568300     21.46803300   
    37       C         14.63696700     20.42098800     18.94068300   
    38       C          2.60196700     15.68401200      5.12931700   
    39       C         21.46803300      3.64901200      6.90568300   
    40       C          9.43303300      8.38598800     17.16431700   
    41       C          8.61946700      0.88818300      9.66651200   
    42       C         20.65446700     11.14681700     14.40348800   
    43       C          3.41553300     23.18181700     21.70151200   
    44       C         15.45053300     12.92318300      2.36848800   
    45       C         12.92318300      2.36848800     15.45053300   
    46       C          0.88818300      9.66651200      8.61946700   
    47       C         23.18181700     21.70151200      3.41553300   
    48       C         11.14681700     14.40348800     20.65446700   
    49       C         14.40348800     20.65446700     11.14681700   
    50       C          2.36848800     15.45053300     12.92318300   
    51       C         21.70151200      3.41553300     23.18181700   
    52       C          9.66651200      8.61946700      0.88818300   
    53       C         14.79342200     17.30392300     20.81332900   
    54       C          2.75842200     18.80107700      3.25667100   
    55       C         21.31157800      6.76607700      8.77832900   
    56       C          9.27657800      5.26892300     15.29167100   
    57       C         20.81332900     14.79342200     17.30392300   
    58       C          8.77832900     21.31157800      6.76607700   
    59       C         15.29167100      9.27657800      5.26892300   
    60       C          3.25667100      2.75842200     18.80107700   
    61       C         17.30392300     20.81332900     14.79342200   
    62       C          5.26892300     15.29167100      9.27657800   
    63       C         18.80107700      3.25667100      2.75842200   
    64       C          6.76607700      8.77832900     21.31157800   
    65       C         11.28642300     20.81092200      9.27417100   
    66       C         23.32142300     15.29407800     14.79582900   
    67       C          0.74857700      3.25907800     21.30917100   
    68       C         12.78357700      8.77592200      2.76082900   
    69       C          8.77592200      2.76082900     12.78357700   
    70       C         20.81092200      9.27417100     11.28642300   
    71       C          3.25907800     21.30917100      0.74857700   
    72       C         15.29407800     14.79582900     23.32142300   
    73       C         14.79582900     23.32142300     15.29407800   
    74       C          2.76082900     12.78357700      8.77592200   
    75       C         21.30917100      0.74857700      3.25907800   
    76       C          9.27417100     11.28642300     20.81092200   
    77       C         15.55884800     15.38313700     22.14199300   
    78       C          3.52384800     20.72186300      1.92800700   
    79       C         20.54615200      8.68686300     10.10699300   
    80       C          8.51115200      3.34813700     13.96300700   
    81       C         22.14199300     15.55884800     15.38313700   
    82       C         10.10699300     20.54615200      8.68686300   
    83       C         13.96300700      8.51115200      3.34813700   
    84       C          1.92800700      3.52384800     20.72186300   
    85       C         15.38313700     22.14199300     15.55884800   
    86       C          3.34813700     13.96300700      8.51115200   
    87       C         20.72186300      1.92800700      3.52384800   
    88       C          8.68686300     10.10699300     20.54615200   
    89       C          9.36563700     21.57634800      7.94550700   
    90       C         21.40063700     14.52865200     16.12449300   
    91       C          2.66936300      2.49365200     19.98050700   
    92       C         14.70436300      9.54134800      4.08949300   
    93       C          9.54134800      4.08949300     14.70436300   
    94       C         21.57634800      7.94550700      9.36563700   
    95       C          2.49365200     19.98050700      2.66936300   
    96       C         14.52865200     16.12449300     21.40063700   
    97       C         16.12449300     21.40063700     14.52865200   
    98       C          4.08949300     14.70436300      9.54134800   
    99       C         19.98050700      2.66936300      2.49365200   
   100       C          7.94550700      9.36563700     21.57634800   
   101       C         17.98510400     19.21748800     19.98050700   
   102       C          5.95010400     16.88751200      4.08949300   
   103       C         18.11989600      4.85251200      7.94550700   
   104       C          6.08489600      7.18248800     16.12449300   
   105       C         19.98050700     17.98510400     19.21748800   
   106       C          7.94550700     18.11989600      4.85251200   
   107       C         16.12449300      6.08489600      7.18248800   
   108       C          4.08949300      5.95010400     16.88751200   
   109       C         13.96300700      1.16498800     12.10239600   
   110       C          1.92800700     10.87001200     11.96760400   
   111       C         22.14199300     22.90501200      0.06739600   
   112       C         10.10699300     13.19998800     24.00260400   
   113       C         13.19998800     24.00260400     10.10699300   
   114       C          1.16498800     12.10239600     13.96300700   
   115       C         22.90501200      0.06739600     22.14199300   
   116       C         10.87001200     11.96760400      1.92800700   
   117       C         11.96760400      1.92800700     10.87001200   
   118       C         24.00260400     10.10699300     13.19998800   
   119       C          0.06739600     22.14199300     22.90501200   
   120       C         12.10239600     13.96300700      1.16498800   
   121       C         18.45687600     16.94528000     20.56300100   
   122       C          6.42187600     19.15972000      3.50699900   
   123       C         17.64812400      7.12472000      8.52800100   
   124       C          5.61312400      4.91028000     15.54199900   
   125       C         20.56300100     18.45687600     16.94528000   
   126       C          8.52800100     17.64812400      7.12472000   
   127       C         15.54199900      5.61312400      4.91028000   
   128       C          3.50699900      6.42187600     19.15972000   
   129       C         16.94528000     20.56300100     18.45687600   
   130       C          4.91028000     15.54199900      5.61312400   
   131       C         19.15972000      3.50699900      6.42187600   
   132       C          7.12472000      8.52800100     17.64812400   
   133       C         10.92778000      0.40437600      9.52449900   
   134       C         22.96278000     11.63062400     14.54550100   
   135       C          1.10722000     23.66562400     21.55949900   
   136       C         13.14222000     12.43937600      2.51050100   
   137       C         12.43937600      2.51050100     13.14222000   
   138       C          0.40437600      9.52449900     10.92778000   
   139       C         23.66562400     21.55949900      1.10722000   
   140       C         11.63062400     14.54550100     22.96278000   
   141       C         14.54550100     22.96278000     11.63062400   
   142       C          2.51050100     13.14222000     12.43937600   
   143       C         21.55949900      1.10722000     23.66562400   
   144       C          9.52449900     10.92778000      0.40437600   
   145       C         16.54812500     19.02011400     20.18991600   
   146       C          4.51312500     17.08488600      3.88008400   
   147       C         19.55687500      5.04988600      8.15491600   
   148       C          7.52187500      6.98511400     15.91508400   
   149       C         20.18991600     16.54812500     19.02011400   
   150       C          8.15491600     19.55687500      5.04988600   
   151       C         15.91508400      7.52187500      6.98511400   
   152       C          3.88008400      4.51312500     17.08488600   
   153       C         19.02011400     20.18991600     16.54812500   
   154       C          6.98511400     15.91508400      7.52187500   
   155       C         17.08488600      3.88008400      4.51312500   
   156       C          5.04988600      8.15491600     19.55687500   
   157       C         13.00261400     22.56562500      9.89758400   
   158       C          0.96761400     13.53937500     14.17241600   
   159       C         23.10238600      1.50437500     21.93258400   
   160       C         11.06738600     10.53062500      2.13741600   
   161       C         10.53062500      2.13741600     11.06738600   
   162       C         22.56562500      9.89758400     13.00261400   
   163       C          1.50437500     21.93258400     23.10238600   
   164       C         13.53937500     14.17241600      0.96761400   
   165       C         14.17241600      0.96761400     13.53937500   
   166       C          2.13741600     11.06738600     10.53062500   
   167       C         21.93258400     23.10238600      1.50437500   
   168       C          9.89758400     13.00261400     22.56562500   
   169       C         23.22514300     21.99035200     23.90873100   
   170       C         11.19014300     14.11464800      0.16126900   
   171       C         12.87985700      2.07964800     11.87373100   
   172       C          0.84485700      9.95535200     12.19626900   
   173       C         23.90873100     23.22514300     21.99035200   
   174       C         11.87373100     12.87985700      2.07964800   
   175       C         12.19626900      0.84485700      9.95535200   
   176       C          0.16126900     11.19014300     14.11464800   
   177       C         21.99035200     23.90873100     23.22514300   
   178       C          9.95535200     12.19626900      0.84485700   
   179       C         14.11464800      0.16126900     11.19014300   
   180       C          2.07964800     11.87373100     12.87985700   
   181       C         15.97285200      5.17264300      6.17876900   
   182       C          3.93785200      6.86235700     17.89123100   
   183       C         20.13214800     18.89735700     18.21376900   
   184       C          8.09714800     17.20764300      5.85623100   
   185       C         17.20764300      5.85623100      8.09714800   
   186       C          5.17264300      6.17876900     15.97285200   
   187       C         18.89735700     18.21376900     20.13214800   
   188       C          6.86235700     17.89123100      3.93785200   
   189       C         17.89123100      3.93785200      6.86235700   
   190       C          5.85623100      8.09714800     17.20764300   
   191       C         18.21376900     20.13214800     18.89735700   
   192       C          6.17876900     15.97285200      5.17264300   
   193       C         17.16672400     16.79123200     21.00829600   
   194       C          5.13172400     19.31376800      3.06170400   
   195       C         18.93827600      7.27876800      8.97329600   
   196       C          6.90327600      4.75623200     15.09670400   
   197       C         21.00829600     17.16672400     16.79123200   
   198       C          8.97329600     18.93827600      7.27876800   
   199       C         15.09670400      6.90327600      4.75623200   
   200       C          3.06170400      5.13172400     19.31376800   
   201       C         16.79123200     21.00829600     17.16672400   
   202       C          4.75623200     15.09670400      6.90327600   
   203       C         19.31376800      3.06170400      5.13172400   
   204       C          7.27876800      8.97329600     18.93827600   
   205       C         10.77373200     23.18422400      9.07920400   
   206       C         22.80873200     12.92077600     14.99079600   
   207       C          1.26126800      0.88577600     21.11420400   
   208       C         13.29626800     11.14922400      2.95579600   
   209       C         11.14922400      2.95579600     13.29626800   
   210       C         23.18422400      9.07920400     10.77373200   
   211       C          0.88577600     21.11420400      1.26126800   
   212       C         12.92077600     14.99079600     22.80873200   
   213       C         14.99079600     22.80873200     12.92077600   
   214       C          2.95579600     13.29626800     11.14922400   
   215       C         21.11420400      1.26126800      0.88577600   
   216       C          9.07920400     10.77373200     23.18422400   
   217       C         16.16300500     17.81420700     20.72908400   
   218       C          4.12800500     18.29079300      3.34091600   
   219       C         19.94199500      6.25579300      8.69408400   
   220       C          7.90699500      5.77920700     15.37591600   
   221       C         20.72908400     16.16300500     17.81420700   
   222       C          8.69408400     19.94199500      6.25579300   
   223       C         15.37591600      7.90699500      5.77920700   
   224       C          3.34091600      4.12800500     18.29079300   
   225       C         17.81420700     20.72908400     16.16300500   
   226       C          5.77920700     15.37591600      7.90699500   
   227       C         18.29079300      3.34091600      4.12800500   
   228       C          6.25579300      8.69408400     19.94199500   
   229       C         11.79670700     22.18050500      9.35841600   
   230       C         23.83170700     13.92449500     14.71158400   
   231       C          0.23829300      1.88949500     21.39341600   
   232       C         12.27329300     10.14550500      2.67658400   
   233       C         10.14550500      2.67658400     12.27329300   
   234       C         22.18050500      9.35841600     11.79670700   
   235       C          1.88949500     21.39341600      0.23829300   
   236       C         13.92449500     14.71158400     23.83170700   
   237       C         14.71158400     23.83170700     13.92449500   
   238       C          2.67658400     12.27329300     10.14550500   
   239       C         21.39341600      0.23829300      1.88949500   
   240       C          9.35841600     11.79670700     22.18050500   
   241       C         19.29932600     15.89101400     20.03346100   
   242       C          7.26432600     20.21398600      4.03653900   
   243       C         16.80567400      8.17898600      7.99846100   
   244       C          4.77067400      3.85601400     16.07153900   
   245       C         20.03346100     19.29932600     15.89101400   
   246       C          7.99846100     16.80567400      8.17898600   
   247       C         16.07153900      4.77067400      3.85601400   
   248       C          4.03653900      7.26432600     20.21398600   
   249       C         15.89101400     20.03346100     19.29932600   
   250       C          3.85601400     16.07153900      4.77067400   
   251       C         20.21398600      4.03653900      7.26432600   
   252       C          8.17898600      7.99846100     16.80567400   
   253       C          9.87351400      1.24682600     10.05403900   
   254       C         21.90851400     10.78817400     14.01596100   
   255       C          2.16148600     22.82317400     22.08903900   
   256       C         14.19648600     13.28182600      1.98096100   
   257       C         13.28182600      1.98096100     14.19648600   
   258       C          1.24682600     10.05403900      9.87351400   
   259       C         22.82317400     22.08903900      2.16148600   
   260       C         10.78817400     14.01596100     21.90851400   
   261       C         14.01596100     21.90851400     10.78817400   
   262       C          1.98096100     14.19648600     13.28182600   
   263       C         22.08903900      2.16148600     22.82317400   
   264       C         10.05403900      9.87351400      1.24682600   
   265       C         16.88029100     15.47701000     21.48728900   
   266       C          4.84529100     20.62799000      2.58271100   
   267       C         19.22470900      8.59299000      9.45228900   
   268       C          7.18970900      3.44201000     14.61771100   
   269       C         21.48728900     16.88029100     15.47701000   
   270       C          9.45228900     19.22470900      8.59299000   
   271       C         14.61771100      7.18970900      3.44201000   
   272       C          2.58271100      4.84529100     20.62799000   
   273       C         15.47701000     21.48728900     16.88029100   
   274       C          3.44201000     14.61771100      7.18970900   
   275       C         20.62799000      2.58271100      4.84529100   
   276       C          8.59299000      9.45228900     19.22470900   
   277       C          9.45951000     22.89779100      8.60021100   
   278       C         21.49451000     13.20720900     15.46978900   
   279       C          2.57549000      1.17220900     20.63521100   
   280       C         14.61049000     10.86279100      3.43478900   
   281       C         10.86279100      3.43478900     14.61049000   
   282       C         22.89779100      8.60021100      9.45951000   
   283       C          1.17220900     20.63521100      2.57549000   
   284       C         13.20720900     15.46978900     21.49451000   
   285       C         15.46978900     21.49451000     13.20720900   
   286       C          3.43478900     14.61049000     10.86279100   
   287       C         20.63521100      2.57549000      1.17220900   
   288       C          8.60021100      9.45951000     22.89779100   
   289       H         13.45031600     21.59801100     17.55184400   
   290       H          1.41531600     14.50698900      6.51815600   
   291       H         22.65468400      2.47198900      5.51684400   
   292       H         10.61968400      9.56301100     18.55315600   
   293       H         17.55184400     13.45031600     21.59801100   
   294       H          5.51684400     22.65468400      2.47198900   
   295       H         18.55315600     10.61968400      9.56301100   
   296       H          6.51815600      1.41531600     14.50698900   
   297       H         21.59801100     17.55184400     13.45031600   
   298       H          9.56301100     18.55315600     10.61968400   
   299       H         14.50698900      6.51815600      1.41531600   
   300       H          2.47198900      5.51684400     22.65468400   
   301       H         15.58051100     19.46781600     12.53565600   
   302       H          3.54551100     16.63718400     11.53434400   
   303       H         20.52448900      4.60218400      0.50065600   
   304       H          8.48948900      7.43281600     23.56934400   
   305       H          7.43281600     23.56934400      8.48948900   
   306       H         19.46781600     12.53565600     15.58051100   
   307       H          4.60218400      0.50065600     20.52448900   
   308       H         16.63718400     11.53434400      3.54551100   
   309       H         11.53434400      3.54551100     16.63718400   
   310       H         23.56934400      8.48948900      7.43281600   
   311       H          0.50065600     20.52448900      4.60218400   
   312       H         12.53565600     15.58051100     19.46781600   
   313       H         13.74878400     20.12733400     19.49910700   
   314       H          1.71378400     15.97766600      4.57089300   
   315       H         22.35621600      3.94266600      7.46410700   
   316       H         10.32121600      8.09233400     16.60589300   
   317       H         19.49910700     13.74878400     20.12733400   
   318       H          7.46410700     22.35621600      3.94266600   
   319       H         16.60589300     10.32121600      8.09233400   
   320       H          4.57089300      1.71378400     15.97766600   
   321       H         20.12733400     19.49910700     13.74878400   
   322       H          8.09233400     16.60589300     10.32121600   
   323       H         15.97766600      4.57089300      1.71378400   
   324       H          3.94266600      7.46410700     22.35621600   
   325       H         14.10983400     19.76628400     10.58839300   
   326       H          2.07483400     16.33871600     13.48160700   
   327       H         21.99516600      4.30371600     22.62339300   
   328       H          9.96016600      7.73128400      1.44660700   
   329       H          7.73128400      1.44660700      9.96016600   
   330       H         19.76628400     10.58839300     14.10983400   
   331       H          4.30371600     22.62339300     21.99516600   
   332       H         16.33871600     13.48160700      2.07483400   
   333       H         13.48160700      2.07483400     16.33871600   
   334       H          1.44660700      9.96016600      7.73128400   
   335       H         22.62339300     21.99516600      4.30371600   
   336       H         10.58839300     14.10983400     19.76628400   
   337       H         14.00392600     17.89845200     20.33674300   
   338       H          1.96892600     18.20654800      3.73325700   
   339       H         22.10107400      6.17154800      8.30174300   
   340       H         10.06607400      5.86345200     15.76825700   
   341       H         20.33674300     14.00392600     17.89845200   
   342       H          8.30174300     22.10107400      6.17154800   
   343       H         15.76825700     10.06607400      5.86345200   
   344       H          3.73325700      1.96892600     18.20654800   
   345       H         17.89845200     20.33674300     14.00392600   
   346       H          5.86345200     15.76825700     10.06607400   
   347       H         18.20654800      3.73325700      1.96892600   
   348       H          6.17154800      8.30174300     22.10107400   
   349       H         11.88095200     20.02142600      9.75075700   
   350       H         23.91595200     16.08357400     14.31924300   
   351       H          0.15404800      4.04857400     21.78575700   
   352       H         12.18904800      7.98642600      2.28424300   
   353       H          7.98642600      2.28424300     12.18904800   
   354       H         20.02142600      9.75075700     11.88095200   
   355       H          4.04857400     21.78575700      0.15404800   
   356       H         16.08357400     14.31924300     23.91595200   
   357       H         14.31924300     23.91595200     16.08357400   
   358       H          2.28424300     12.18904800      7.98642600   
   359       H         21.78575700      0.15404800      4.04857400   
   360       H          9.75075700     11.88095200     20.02142600   
   361      Tv         24.07000000      0.00000000      0.00000000   
   362      Tv          0.00000000     24.07000000      0.00000000   
   363      Tv          0.00000000      0.00000000     24.07000000   

                             CARTESIAN COORDINATES

   1    N       19.217488000    19.980507000    17.985104000
   2    N        7.182488000    16.124493000     6.084896000
   3    N       16.887512000     4.089493000     5.950104000
   4    N        4.852512000     7.945507000    18.119896000
   5    C       17.766067000    14.461256000    21.229740000
   6    C        5.731067000    21.643744000     2.840260000
   7    C       18.338933000     9.608744000     9.194740000
   8    C        6.303933000     2.426256000    14.875260000
   9    C       21.229740000    17.766067000    14.461256000
  10    C        9.194740000    18.338933000     9.608744000
  11    C       14.875260000     6.303933000     2.426256000
  12    C        2.840260000     5.731067000    21.643744000
  13    C       14.461256000    21.229740000    17.766067000
  14    C        2.426256000    14.875260000     6.303933000
  15    C       21.643744000     2.840260000     5.731067000
  16    C        9.608744000     9.194740000    18.338933000
  17    C        8.443756000    23.783567000     8.857760000
  18    C       20.478756000    12.321433000    15.212240000
  19    C        3.591244000     0.286433000    20.892760000
  20    C       15.626244000    11.748567000     3.177240000
  21    C       11.748567000     3.177240000    15.626244000
  22    C       23.783567000     8.857760000     8.443756000
  23    C        0.286433000    20.892760000     3.591244000
  24    C       12.321433000    15.212240000    20.478756000
  25    C       15.212240000    20.478756000    12.321433000
  26    C        3.177240000    15.626244000    11.748567000
  27    C       20.892760000     3.591244000     0.286433000
  28    C        8.857760000     8.443756000    23.783567000
  29    C       18.940683000    14.636967000    20.420988000
  30    C        6.905683000    21.468033000     3.649012000
  31    C       17.164317000     9.433033000     8.385988000
  32    C        5.129317000     2.601967000    15.684012000
  33    C       20.420988000    18.940683000    14.636967000
  34    C        8.385988000    17.164317000     9.433033000
  35    C       15.684012000     5.129317000     2.601967000
  36    C        3.649012000     6.905683000    21.468033000
  37    C       14.636967000    20.420988000    18.940683000
  38    C        2.601967000    15.684012000     5.129317000
  39    C       21.468033000     3.649012000     6.905683000
  40    C        9.433033000     8.385988000    17.164317000
  41    C        8.619467000     0.888183000     9.666512000
  42    C       20.654467000    11.146817000    14.403488000
  43    C        3.415533000    23.181817000    21.701512000
  44    C       15.450533000    12.923183000     2.368488000
  45    C       12.923183000     2.368488000    15.450533000
  46    C        0.888183000     9.666512000     8.619467000
  47    C       23.181817000    21.701512000     3.415533000
  48    C       11.146817000    14.403488000    20.654467000
  49    C       14.403488000    20.654467000    11.146817000
  50    C        2.368488000    15.450533000    12.923183000
  51    C       21.701512000     3.415533000    23.181817000
  52    C        9.666512000     8.619467000     0.888183000
  53    C       14.793422000    17.303923000    20.813329000
  54    C        2.758422000    18.801077000     3.256671000
  55    C       21.311578000     6.766077000     8.778329000
  56    C        9.276578000     5.268923000    15.291671000
  57    C       20.813329000    14.793422000    17.303923000
  58    C        8.778329000    21.311578000     6.766077000
  59    C       15.291671000     9.276578000     5.268923000
  60    C        3.256671000     2.758422000    18.801077000
  61    C       17.303923000    20.813329000    14.793422000
  62    C        5.268923000    15.291671000     9.276578000
  63    C       18.801077000     3.256671000     2.758422000
  64    C        6.766077000     8.778329000    21.311578000
  65    C       11.286423000    20.810922000     9.274171000
  66    C       23.321423000    15.294078000    14.795829000
  67    C        0.748577000     3.259078000    21.309171000
  68    C       12.783577000     8.775922000     2.760829000
  69    C        8.775922000     2.760829000    12.783577000
  70    C       20.810922000     9.274171000    11.286423000
  71    C        3.259078000    21.309171000     0.748577000
  72    C       15.294078000    14.795829000    23.321423000
  73    C       14.795829000    23.321423000    15.294078000
  74    C        2.760829000    12.783577000     8.775922000
[...]
  293          H           0.158963        0.8410     0.84104
  294          H           0.158963        0.8410     0.84104
  295          H           0.158963        0.8410     0.84104
  296          H           0.158963        0.8410     0.84104
  297          H           0.163293        0.8367     0.83671
  298          H           0.163293        0.8367     0.83671
  299          H           0.163293        0.8367     0.83671
  300          H           0.163293        0.8367     0.83671
  301          H           0.159151        0.8408     0.84085
  302          H           0.159151        0.8408     0.84085
  303          H           0.159151        0.8408     0.84085
  304          H           0.159151        0.8408     0.84085
  305          H           0.159637        0.8404     0.84036
  306          H           0.159637        0.8404     0.84036
  307          H           0.159637        0.8404     0.84036
  308          H           0.159637        0.8404     0.84036
  309          H           0.159740        0.8403     0.84026
  310          H           0.159741        0.8403     0.84026
  311          H           0.159740        0.8403     0.84026
  312          H           0.159741        0.8403     0.84026
  313          H           0.159076        0.8409     0.84092
  314          H           0.159077        0.8409     0.84092
  315          H           0.159076        0.8409     0.84092
  316          H           0.159077        0.8409     0.84092
  317          H           0.158465        0.8415     0.84153
  318          H           0.158465        0.8415     0.84153
  319          H           0.158465        0.8415     0.84153
  320          H           0.158465        0.8415     0.84153
  321          H           0.164719        0.8353     0.83528
  322          H           0.164719        0.8353     0.83528
  323          H           0.164719        0.8353     0.83528
  324          H           0.164719        0.8353     0.83528
  325          H           0.159756        0.8402     0.84024
  326          H           0.159756        0.8402     0.84024
  327          H           0.159756        0.8402     0.84024
  328          H           0.159756        0.8402     0.84024
  329          H           0.160931        0.8391     0.83907
  330          H           0.160931        0.8391     0.83907
  331          H           0.160931        0.8391     0.83907
  332          H           0.160931        0.8391     0.83907
  333          H           0.161076        0.8389     0.83892
  334          H           0.161076        0.8389     0.83892
  335          H           0.161076        0.8389     0.83892
  336          H           0.161076        0.8389     0.83892
  337          H           0.170315        0.8297     0.82969
  338          H           0.170315        0.8297     0.82969
  339          H           0.170315        0.8297     0.82969
  340          H           0.170315        0.8297     0.82969
  341          H           0.169426        0.8306     0.83057
  342          H           0.169426        0.8306     0.83057
  343          H           0.169426        0.8306     0.83057
  344          H           0.169426        0.8306     0.83057
  345          H           0.168345        0.8317     0.83166
  346          H           0.168345        0.8317     0.83165
  347          H           0.168345        0.8317     0.83166
  348          H           0.168345        0.8317     0.83165
  349          H           0.168444        0.8316     0.83156
  350          H           0.168444        0.8316     0.83156
  351          H           0.168444        0.8316     0.83156
  352          H           0.168444        0.8316     0.83156
  353          H           0.169368        0.8306     0.83063
  354          H           0.169368        0.8306     0.83063
  355          H           0.169368        0.8306     0.83063
  356          H           0.169368        0.8306     0.83063
  357          H           0.170310        0.8297     0.82969
  358          H           0.170310        0.8297     0.82969
  359          H           0.170310        0.8297     0.82969
  360          H           0.170310        0.8297     0.82969


          ATOMIC ORBITAL ELECTRON POPULATIONS

     Atom    s        px        py        pz   
    1  N   1.54211   1.21689   1.32500   1.10492
    2  N   1.54211   1.21689   1.32500   1.10492
    3  N   1.54211   1.21689   1.32500   1.10492
    4  N   1.54211   1.21689   1.32500   1.10492
    5  C   1.08313   0.99222   1.07318   1.02336
    6  C   1.08313   0.99222   1.07318   1.02336
    7  C   1.08313   0.99222   1.07318   1.02336
    8  C   1.08313   0.99222   1.07318   1.02336
    9  C   1.08571   1.00572   0.98237   1.07495
   10  C   1.08571   1.00572   0.98237   1.07495
   11  C   1.08571   1.00572   0.98237   1.07495
   12  C   1.08571   1.00572   0.98237   1.07495
   13  C   1.08161   1.07194   1.02904   0.99417
   14  C   1.08161   1.07194   1.02904   0.99417
   15  C   1.08161   1.07194   1.02904   0.99417
   16  C   1.08161   1.07194   1.02904   0.99417
   17  C   1.08468   1.07241   0.98797   1.01324
   18  C   1.08468   1.07241   0.98797   1.01324
   19  C   1.08468   1.07241   0.98797   1.01324
   20  C   1.08468   1.07241   0.98797   1.01324
   21  C   1.08491   0.98676   1.01094   1.07220
   22  C   1.08491   0.98676   1.01094   1.07220
   23  C   1.08491   0.98676   1.01094   1.07220
   24  C   1.08491   0.98676   1.01094   1.07220
   25  C   1.08469   1.01196   1.07214   0.98735
   26  C   1.08469   1.01196   1.07214   0.98735
   27  C   1.08469   1.01196   1.07214   0.98735
   28  C   1.08469   1.01196   1.07214   0.98735
   29  C   1.08381   0.99684   1.04326   0.98805
   30  C   1.08381   0.99684   1.04326   0.98805
   31  C   1.08381   0.99684   1.04326   0.98805
   32  C   1.08381   0.99684   1.04326   0.98805
   33  C   1.08242   0.99098   1.00076   1.03840
   34  C   1.08242   0.99098   1.00076   1.03840
   35  C   1.08242   0.99098   1.00076   1.03840
   36  C   1.08242   0.99098   1.00076   1.03840
   37  C   1.08361   1.04211   0.98582   0.99548
   38  C   1.08361   1.04211   0.98582   0.99548
   39  C   1.08361   1.04211   0.98582   0.99548
   40  C   1.08361   1.04211   0.98582   0.99548
   41  C   1.08301   1.04602   1.00198   0.99792
   42  C   1.08301   1.04602   1.00198   0.99792
   43  C   1.08301   1.04602   1.00198   0.99792
   44  C   1.08301   1.04602   1.00198   0.99792
   45  C   1.08294   1.00285   0.99900   1.04632
   46  C   1.08294   1.00285   0.99900   1.04632
   47  C   1.08294   1.00285   0.99900   1.04632
   48  C   1.08294   1.00285   0.99900   1.04632
   49  C   1.08272   1.00011   1.04611   1.00328
   50  C   1.08272   1.00011   1.04611   1.00328
   51  C   1.08272   1.00011   1.04611   1.00328
   52  C   1.08272   1.00011   1.04611   1.00328
   53  C   1.08438   1.02840   1.01704   1.02692
   54  C   1.08438   1.02840   1.01704   1.02692
   55  C   1.08438   1.02840   1.01704   1.02692
   56  C   1.08438   1.02840   1.01704   1.02692
   57  C   1.08358   1.02080   1.02319   1.01444
   58  C   1.08358   1.02080   1.02319   1.01444
   59  C   1.08358   1.02080   1.02319   1.01444
   60  C   1.08358   1.02080   1.02319   1.01444
   61  C   1.07869   1.02509   1.04555   1.01303
   62  C   1.07869   1.02509   1.04555   1.01303
   63  C   1.07869   1.02509   1.04555   1.01303
   64  C   1.07869   1.02509   1.04555   1.01303
   65  C   1.08431   1.01662   1.02869   1.02630
   66  C   1.08431   1.01662   1.02869   1.02630
   67  C   1.08431   1.01662   1.02869   1.02630
   68  C   1.08431   1.01662   1.02869   1.02630
   69  C   1.08410   1.02713   1.02739   1.01859
   70  C   1.08410   1.02713   1.02739   1.01859
   71  C   1.08410   1.02713   1.02739   1.01859
   72  C   1.08410   1.02713   1.02739   1.01859
   73  C   1.08276   1.03765   1.01922   1.02709
   74  C   1.08276   1.03765   1.01922   1.02709
   75  C   1.08276   1.03765   1.01922   1.02709
   76  C   1.08276   1.03765   1.01922   1.02709
   77  C   1.06909   0.96877   0.98246   0.97863
   78  C   1.06909   0.96877   0.98247   0.97863
   79  C   1.06909   0.96877   0.98246   0.97863
   80  C   1.06909   0.96877   0.98247   0.97863
   81  C   1.06740   0.97988   0.96343   0.98927
   82  C   1.06740   0.97988   0.96343   0.98927
   83  C   1.06740   0.97988   0.96343   0.98927
   84  C   1.06740   0.97988   0.96343   0.98927
   85  C   1.06866   0.98044   0.97660   0.96606
   86  C   1.06866   0.98044   0.97660   0.96606
   87  C   1.06866   0.98044   0.97660   0.96606
   88  C   1.06866   0.98044   0.97660   0.96606
   89  C   1.06636   0.99596   0.96718   0.98244
   90  C   1.06636   0.99596   0.96718   0.98244
   91  C   1.06636   0.99596   0.96718   0.98244
   92  C   1.06636   0.99596   0.96718   0.98244
   93  C   1.06844   0.96656   0.97935   0.98393
   94  C   1.06844   0.96656   0.97935   0.98393
   95  C   1.06844   0.96656   0.97935   0.98393
   96  C   1.06844   0.96656   0.97935   0.98393
   97  C   1.06947   0.97375   0.97421   0.96671
   98  C   1.06947   0.97375   0.97421   0.96671
   99  C   1.06947   0.97375   0.97421   0.96671
  100  C   1.06947   0.97375   0.97421   0.96671
  101  C   1.06825   0.96577   0.94904   0.98278
  102  C   1.06825   0.96577   0.94904   0.98278
  103  C   1.06825   0.96577   0.94904   0.98278
  104  C   1.06825   0.96577   0.94904   0.98278
  105  C   1.06787   0.98615   0.96013   0.99599
  106  C   1.06787   0.98615   0.96013   0.99599
  107  C   1.06787   0.98615   0.96013   0.99599
  108  C   1.06787   0.98615   0.96013   0.99599
  109  C   1.07028   0.97017   0.97230   0.95993
  110  C   1.07028   0.97017   0.97230   0.95993
  111  C   1.07028   0.97017   0.97230   0.95993
  112  C   1.07028   0.97017   0.97230   0.95993
  113  C   1.07002   0.97370   0.95920   0.97154
  114  C   1.07002   0.97370   0.95920   0.97154
  115  C   1.07002   0.97370   0.95920   0.97154
  116  C   1.07002   0.97370   0.95920   0.97154
  117  C   1.07004   0.96007   0.97244   0.97377
  118  C   1.07004   0.96007   0.97244   0.97377
  119  C   1.07004   0.96007   0.97244   0.97377
  120  C   1.07004   0.96007   0.97244   0.97377
  121  C   1.06185   0.98228   0.97536   1.00642
  122  C   1.06185   0.98228   0.97536   1.00642
  123  C   1.06185   0.98228   0.97536   1.00642
  124  C   1.06185   0.98228   0.97536   1.00642
  125  C   1.05915   1.05384   0.99713   0.97205
  126  C   1.05915   1.05384   0.99713   0.97205
  127  C   1.05915   1.05384   0.99713   0.97205
  128  C   1.05915   1.05384   0.99713   0.97205
  129  C   1.06568   0.97221   0.99207   0.98178
  130  C   1.06568   0.97221   0.99207   0.98178
  131  C   1.06568   0.97221   0.99207   0.98178
  132  C   1.06568   0.97221   0.99207   0.98178
  133  C   1.06602   0.98322   0.98304   0.99389
  134  C   1.06602   0.98322   0.98304   0.99389
  135  C   1.06602   0.98322   0.98304   0.99389
  136  C   1.06602   0.98322   0.98304   0.99389
  137  C   1.06600   0.98346   0.99451   0.98301
  138  C   1.06600   0.98346   0.99451   0.98301
  139  C   1.06600   0.98346   0.99451   0.98301
  140  C   1.06600   0.98346   0.99451   0.98301
  141  C   1.06590   0.99322   0.98275   0.98271
  142  C   1.06590   0.99322   0.98275   0.98271
  143  C   1.06590   0.99322   0.98275   0.98271
  144  C   1.06590   0.99322   0.98275   0.98271
  145  C   1.06831   0.95761   0.98211   1.02463
  146  C   1.06831   0.95761   0.98211   1.02463
  147  C   1.06831   0.95761   0.98211   1.02463
  148  C   1.06831   0.95761   0.98211   1.02463
  149  C   1.07205   0.99865   0.95083   0.97367
  150  C   1.07205   0.99865   0.95083   0.97367
  151  C   1.07205   0.99865   0.95083   0.97367
  152  C   1.07205   0.99866   0.95083   0.97367
  153  C   1.08315   0.97441   1.00955   0.78472
  154  C   1.08315   0.97441   1.00955   0.78472
  155  C   1.08315   0.97441   1.00955   0.78472
  156  C   1.08315   0.97441   1.00955   0.78472
  157  C   1.07305   0.97678   0.96832   1.00346
  158  C   1.07305   0.97678   0.96832   1.00346
  159  C   1.07305   0.97678   0.96832   1.00346
  160  C   1.07305   0.97678   0.96832   1.00346
  161  C   1.07319   0.96756   1.00278   0.97667
  162  C   1.07319   0.96756   1.00278   0.97667
  163  C   1.07319   0.96756   1.00278   0.97667
  164  C   1.07319   0.96756   1.00278   0.97667
  165  C   1.07259   1.00675   0.97815   0.96720
  166  C   1.07259   1.00675   0.97815   0.96720
  167  C   1.07259   1.00675   0.97815   0.96720
  168  C   1.07259   1.00675   0.97815   0.96720
  169  C   1.05650   0.99075   1.01054   0.98052
  170  C   1.05650   0.99075   1.01054   0.98052
  171  C   1.05650   0.99075   1.01054   0.98052
  172  C   1.05650   0.99075   1.01054   0.98052
  173  C   1.05651   0.98052   0.99073   1.01053
  174  C   1.05651   0.98052   0.99073   1.01053
  175  C   1.05651   0.98052   0.99073   1.01053
  176  C   1.05651   0.98052   0.99073   1.01053
  177  C   1.05581   1.01417   0.98093   0.99140
  178  C   1.05581   1.01417   0.98093   0.99140
  179  C   1.05581   1.01417   0.98093   0.99140
  180  C   1.05581   1.01417   0.98093   0.99140
  181  C   1.05638   0.98021   0.85398   0.98962
  182  C   1.05638   0.98021   0.85398   0.98962
  183  C   1.05638   0.98021   0.85398   0.98962
  184  C   1.05638   0.98021   0.85398   0.98962
  185  C   1.05106   0.99116   0.99050   1.02793
  186  C   1.05106   0.99116   0.99050   1.02793
  187  C   1.05106   0.99116   0.99050   1.02793
  188  C   1.05106   0.99116   0.99050   1.02793
  189  C   1.04423   0.88949   1.09532   0.96731
  190  C   1.04423   0.88949   1.09532   0.96731
  191  C   1.04423   0.88949   1.09532   0.96731
  192  C   1.04423   0.88949   1.09532   0.96731
  193  C   1.05917   0.97587   0.98294   1.02736
  194  C   1.05917   0.97587   0.98294   1.02736
  195  C   1.05917   0.97587   0.98294   1.02736
  196  C   1.05917   0.97587   0.98294   1.02736
  197  C   1.06273   0.98809   0.96179   0.98343
  198  C   1.06273   0.98809   0.96179   0.98343
  199  C   1.06273   0.98809   0.96179   0.98343
  200  C   1.06273   0.98809   0.96179   0.98343
  201  C   1.05694   0.98716   1.02005   0.97055
  202  C   1.05694   0.98716   1.02005   0.97055
  203  C   1.05694   0.98716   1.02005   0.97055
  204  C   1.05694   0.98716   1.02005   0.97055
  205  C   1.06140   0.98254   0.97472   1.01198
  206  C   1.06140   0.98254   0.97472   1.01198
  207  C   1.06140   0.98254   0.97472   1.01198
  208  C   1.06140   0.98254   0.97472   1.01198
  209  C   1.06142   0.97455   1.01118   0.98259
  210  C   1.06142   0.97455   1.01118   0.98259
  211  C   1.06142   0.97455   1.01118   0.98259
  212  C   1.06142   0.97455   1.01118   0.98259
  213  C   1.06157   1.01137   0.98289   0.97512
  214  C   1.06157   1.01137   0.98289   0.97512
  215  C   1.06157   1.01137   0.98289   0.97512
  216  C   1.06157   1.01137   0.98289   0.97512
  217  C   1.06766   0.96498   0.95085   0.96118
  218  C   1.06766   0.96498   0.95085   0.96118
  219  C   1.06766   0.96498   0.95085   0.96118
  220  C   1.06766   0.96498   0.95085   0.96118
  221  C   1.06231   1.01096   0.96949   0.95846
  222  C   1.06231   1.01096   0.96949   0.95846
  223  C   1.06231   1.01096   0.96949   0.95846
  224  C   1.06231   1.01096   0.96949   0.95846
  225  C   1.06200   0.94133   1.02070   0.98813
  226  C   1.06200   0.94133   1.02070   0.98813
  227  C   1.06200   0.94133   1.02070   0.98813
  228  C   1.06200   0.94133   1.02070   0.98813
  229  C   1.06588   0.95464   0.96583   0.97973
  230  C   1.06588   0.95464   0.96583   0.97973
  231  C   1.06588   0.95464   0.96583   0.97973
  232  C   1.06588   0.95464   0.96583   0.97973
  233  C   1.06636   0.96731   0.97735   0.95360
  234  C   1.06636   0.96731   0.97735   0.95360
  235  C   1.06636   0.96731   0.97735   0.95360
  236  C   1.06636   0.96731   0.97735   0.95360
  237  C   1.06661   0.97345   0.95262   0.96724
  238  C   1.06661   0.97345   0.95262   0.96724
  239  C   1.06661   0.97345   0.95262   0.96724
  240  C   1.06661   0.97345   0.95262   0.96724
  241  C   1.06673   0.97975   0.97724   0.98321
  242  C   1.06673   0.97975   0.97724   0.98321
  243  C   1.06673   0.97975   0.97724   0.98321
  244  C   1.06673   0.97975   0.97724   0.98321
  245  C   1.06397   0.99021   0.98201   0.98398
  246  C   1.06397   0.99021   0.98201   0.98398
  247  C   1.06397   0.99021   0.98201   0.98398
  248  C   1.06397   0.99021   0.98201   0.98398
  249  C   1.06314   0.97122   0.99669   0.99257
  250  C   1.06314   0.97122   0.99669   0.99257
  251  C   1.06314   0.97122   0.99669   0.99257
  252  C   1.06314   0.97122   0.99669   0.99257
  253  C   1.06944   0.97486   0.97712   0.97427
  254  C   1.06944   0.97486   0.97712   0.97427
  255  C   1.06944   0.97486   0.97712   0.97427
  256  C   1.06944   0.97486   0.97712   0.97427
  257  C   1.06959   0.97563   0.97254   0.97452
  258  C   1.06959   0.97563   0.97254   0.97452
  259  C   1.06959   0.97563   0.97254   0.97452
  260  C   1.06959   0.97563   0.97254   0.97452
  261  C   1.06951   0.97368   0.97485   0.97616
  262  C   1.06951   0.97368   0.97485   0.97616
  263  C   1.06951   0.97368   0.97485   0.97616
  264  C   1.06951   0.97368   0.97485   0.97616
  265  C   1.06560   0.96428   0.97526   0.98193
  266  C   1.06560   0.96428   0.97526   0.98193
  267  C   1.06560   0.96428   0.97526   0.98193
  268  C   1.06560   0.96428   0.97526   0.98193
  269  C   1.06673   0.98442   0.96878   0.97256
  270  C   1.06673   0.98442   0.96878   0.97256
  271  C   1.06673   0.98442   0.96878   0.97256
  272  C   1.06673   0.98442   0.96878   0.97256
  273  C   1.06231   0.97046   0.99855   0.97050
  274  C   1.06231   0.97046   0.99855   0.97050
  275  C   1.06231   0.97046   0.99855   0.97050
  276  C   1.06231   0.97046   0.99855   0.97050
  277  C   1.06494   0.97526   0.96809   0.99094
  278  C   1.06494   0.97526   0.96809   0.99094
  279  C   1.06494   0.97526   0.96809   0.99094
  280  C   1.06494   0.97526   0.96809   0.99094
  281  C   1.06486   0.96905   0.99344   0.97563
  282  C   1.06486   0.96905   0.99344   0.97563
  283  C   1.06486   0.96905   0.99344   0.97563
  284  C   1.06486   0.96905   0.99344   0.97563
  285  C   1.06460   0.99402   0.97637   0.96820
  286  C   1.06460   0.99402   0.97637   0.96820
  287  C   1.06460   0.99402   0.97637   0.96820
  288  C   1.06460   0.99402   0.97637   0.96820
  289  H   0.84065
  290  H   0.84065
  291  H   0.84065
  292  H   0.84065
  293  H   0.84104
  294  H   0.84104
  295  H   0.84104
  296  H   0.84104
  297  H   0.83671
  298  H   0.83671
  299  H   0.83671
  300  H   0.83671
  301  H   0.84085
  302  H   0.84085
  303  H   0.84085
  304  H   0.84085
  305  H   0.84036
  306  H   0.84036
  307  H   0.84036
  308  H   0.84036
  309  H   0.84026
  310  H   0.84026
  311  H   0.84026
  312  H   0.84026
  313  H   0.84092
  314  H   0.84092
  315  H   0.84092
  316  H   0.84092
  317  H   0.84153
  318  H   0.84153
  319  H   0.84153
  320  H   0.84153
  321  H   0.83528
  322  H   0.83528
  323  H   0.83528
  324  H   0.83528
  325  H   0.84024
  326  H   0.84024
  327  H   0.84024
  328  H   0.84024
  329  H   0.83907
  330  H   0.83907
  331  H   0.83907
  332  H   0.83907
  333  H   0.83892
  334  H   0.83892
  335  H   0.83892
  336  H   0.83892
  337  H   0.82969
  338  H   0.82969
  339  H   0.82969
  340  H   0.82969
  341  H   0.83057
  342  H   0.83057
  343  H   0.83057
  344  H   0.83057
  345  H   0.83166
  346  H   0.83165
  347  H   0.83166
  348  H   0.83165
  349  H   0.83156
  350  H   0.83156
  351  H   0.83156
  352  H   0.83156
  353  H   0.83063
  354  H   0.83063
  355  H   0.83063
  356  H   0.83063
  357  H   0.82969
  358  H   0.82969
  359  H   0.82969
  360  H   0.82969

 **********************
 *                    *
 * JOB ENDED NORMALLY *
 *                    *
 **********************



 TOTAL JOB TIME:            21.17 SECONDS

 == MOPAC DONE ==
