 *******************************************************************************
 **                                                                           **
 **                              MOPAC v22.1.0                                **
 **                                                                           **
 *******************************************************************************
 **          Digital Object Identifier (DOI): 10.5281/zenodo.6511958          **
 **    Visit the DOI location for information on how to cite this program.    **
 *******************************************************************************

                              PM7 CALCULATION RESULTS

 *******************************************************************************
 *  CALCULATION DONE:                                Thu Feb  1 15:31:33 2024  *
 *  PM7        - The PM7 Hamiltonian to be used
 *  NOOPT      - DO NOT OPTIMIZE ANY COORDINATES
 *
 *
 *
 *                 CHARGE ON SYSTEM = 0
 *
 *
 *
 *  T=         - A TIME OF 172800.0 SECONDS REQUESTED
 *  DUMP=N     - RESTART FILE WRITTEN EVERY 7200.0 SECONDS REQUESTED
 *******************************************************************************
PM7 CHARGE=0 NOOPT


   ATOM   CHEMICAL          X               Y               Z
  NUMBER   SYMBOL      (ANGSTROMS)     (ANGSTROMS)     (ANGSTROMS)

     1       C         17.76606700     14.46125600     21.22974000   
     2       C         18.33893300      9.60874400      9.19474000   
     3       C         14.87526000      6.30393300      2.42625600   
     4       C          9.19474000     18.33893300      9.60874400   
     5       C          2.42625600     14.87526000      6.30393300   
     6       C         21.22974000     17.76606700     14.46125600   
     7       C          2.84026000      5.73106700     21.64374400   
     8       C         14.46125600     21.22974000     17.76606700   
     9       C         21.64374400      2.84026000      5.73106700   
    10       C          9.60874400      9.19474000     18.33893300   
    11       C          5.73106700     21.64374400      2.84026000   
    12       C          6.30393300      2.42625600     14.87526000   
    13       C          8.44375600     23.78356700      8.85776000   
    14       C          3.59124400      0.28643300     20.89276000   
    15       C          3.17724000     15.62624400     11.74856700   
    16       C         20.89276000      3.59124400      0.28643300   
    17       C         11.74856700      3.17724000     15.62624400   
    18       C          8.85776000      8.44375600     23.78356700   
    19       C         15.21224000     20.47875600     12.32143300   
    20       C         23.78356700      8.85776000      8.44375600   
    21       C         12.32143300     15.21224000     20.47875600   
    22       C          0.28643300     20.89276000      3.59124400   
    23       C         20.47875600     12.32143300     15.21224000   
    24       C         15.62624400     11.74856700      3.17724000   
    25       C         18.94068300     14.63696700     20.42098800   
    26       C         17.16431700      9.43303300      8.38598800   
    27       C         15.68401200      5.12931700      2.60196700   
    28       C          8.38598800     17.16431700      9.43303300   
    29       C          2.60196700     15.68401200      5.12931700   
    30       C         20.42098800     18.94068300     14.63696700   
    31       C          3.64901200      6.90568300     21.46803300   
    32       C         14.63696700     20.42098800     18.94068300   
    33       C         21.46803300      3.64901200      6.90568300   
    34       C          9.43303300      8.38598800     17.16431700   
    35       C          6.90568300     21.46803300      3.64901200   
    36       C          5.12931700      2.60196700     15.68401200   
    37       C          8.61946700      0.88818300      9.66651200   
    38       C          3.41553300     23.18181700     21.70151200   
    39       C          2.36848800     15.45053300     12.92318300   
    40       C         21.70151200      3.41553300     23.18181700   
    41       C         12.92318300      2.36848800     15.45053300   
    42       C          9.66651200      8.61946700      0.88818300   
    43       C         14.40348800     20.65446700     11.14681700   
    44       C          0.88818300      9.66651200      8.61946700   
    45       C         11.14681700     14.40348800     20.65446700   
    46       C         23.18181700     21.70151200      3.41553300   
    47       C         20.65446700     11.14681700     14.40348800   
    48       C         15.45053300     12.92318300      2.36848800   
    49       C         14.79342200     17.30392300     20.81332900   
    50       C         21.31157800      6.76607700      8.77832900   
    51       C         15.29167100      9.27657800      5.26892300   
    52       C          8.77832900     21.31157800      6.76607700   
    53       C          5.26892300     15.29167100      9.27657800   
    54       C         20.81332900     14.79342200     17.30392300   
    55       C          3.25667100      2.75842200     18.80107700   
    56       C         17.30392300     20.81332900     14.79342200   
    57       C         18.80107700      3.25667100      2.75842200   
    58       C          6.76607700      8.77832900     21.31157800   
    59       C          2.75842200     18.80107700      3.25667100   
    60       C          9.27657800      5.26892300     15.29167100   
    61       C         11.28642300     20.81092200      9.27417100   
    62       C          0.74857700      3.25907800     21.30917100   
    63       C          2.76082900     12.78357700      8.77592200   
    64       C         21.30917100      0.74857700      3.25907800   
    65       C          8.77592200      2.76082900     12.78357700   
    66       C          9.27417100     11.28642300     20.81092200   
    67       C         14.79582900     23.32142300     15.29407800   
    68       C         20.81092200      9.27417100     11.28642300   
    69       C         15.29407800     14.79582900     23.32142300   
    70       C          3.25907800     21.30917100      0.74857700   
    71       C         23.32142300     15.29407800     14.79582900   
    72       C         12.78357700      8.77592200      2.76082900   
    73       C         15.55884800     15.38313700     22.14199300   
    74       C         20.54615200      8.68686300     10.10699300   
    75       C         13.96300700      8.51115200      3.34813700   
    76       C         10.10699300     20.54615200      8.68686300   
    77       C          3.34813700     13.96300700      8.51115200   
    78       C         22.14199300     15.55884800     15.38313700   
    79       C          1.92800700      3.52384800     20.72186300   
    80       C         15.38313700     22.14199300     15.55884800   
    81       C         20.72186300      1.92800700      3.52384800   
    82       C          8.68686300     10.10699300     20.54615200   
    83       C          3.52384800     20.72186300      1.92800700   
    84       C          8.51115200      3.34813700     13.96300700   
    85       C          9.36563700     21.57634800      7.94550700   
    86       C          2.66936300      2.49365200     19.98050700   
    87       C          4.08949300     14.70436300      9.54134800   
    88       C         19.98050700      2.66936300      2.49365200   
    89       C          9.54134800      4.08949300     14.70436300   
    90       C          7.94550700      9.36563700     21.57634800   
    91       C         16.12449300     21.40063700     14.52865200   
    92       C         21.57634800      7.94550700      9.36563700   
    93       C         14.52865200     16.12449300     21.40063700   
    94       C          2.49365200     19.98050700      2.66936300   
    95       C         21.40063700     14.52865200     16.12449300   
    96       C         14.70436300      9.54134800      4.08949300   
    97       C         13.96300700      1.16498800     12.10239600   
    98       C         22.14199300     22.90501200      0.06739600   
    99       C         24.00260400     10.10699300     13.19998800   
   100       C          0.06739600     22.14199300     22.90501200   
   101       C         13.19998800     24.00260400     10.10699300   
   102       C         12.10239600     13.96300700      1.16498800   
   103       C         11.96760400      1.92800700     10.87001200   
   104       C          1.16498800     12.10239600     13.96300700   
   105       C         10.87001200     11.96760400      1.92800700   
   106       C         22.90501200      0.06739600     22.14199300   
   107       C          1.92800700     10.87001200     11.96760400   
   108       C         10.10699300     13.19998800     24.00260400   
   109       C         18.45687600     16.94528000     20.56300100   
   110       C         17.64812400      7.12472000      8.52800100   
   111       C         15.54199900      5.61312400      4.91028000   
   112       C          8.52800100     17.64812400      7.12472000   
   113       C          4.91028000     15.54199900      5.61312400   
   114       C         20.56300100     18.45687600     16.94528000   
   115       C          3.50699900      6.42187600     19.15972000   
   116       C         16.94528000     20.56300100     18.45687600   
   117       C         19.15972000      3.50699900      6.42187600   
   118       C          7.12472000      8.52800100     17.64812400   
   119       C          6.42187600     19.15972000      3.50699900   
   120       C          5.61312400      4.91028000     15.54199900   
   121       C         10.92778000      0.40437600      9.52449900   
   122       C          1.10722000     23.66562400     21.55949900   
   123       C          2.51050100     13.14222000     12.43937600   
   124       C         21.55949900      1.10722000     23.66562400   
   125       C         12.43937600      2.51050100     13.14222000   
   126       C          9.52449900     10.92778000      0.40437600   
   127       C         14.54550100     22.96278000     11.63062400   
   128       C          0.40437600      9.52449900     10.92778000   
   129       C         11.63062400     14.54550100     22.96278000   
   130       C         23.66562400     21.55949900      1.10722000   
   131       C         22.96278000     11.63062400     14.54550100   
   132       C         13.14222000     12.43937600      2.51050100   
   133       C         16.54812500     19.02011400     20.18991600   
   134       C         19.55687500      5.04988600      8.15491600   
   135       C         15.91508400      7.52187500      6.98511400   
   136       C          8.15491600     19.55687500      5.04988600   
   137       C          6.98511400     15.91508400      7.52187500   
   138       C         20.18991600     16.54812500     19.02011400   
   139       C          3.88008400      4.51312500     17.08488600   
   140       C         19.02011400     20.18991600     16.54812500   
   141       C         17.08488600      3.88008400      4.51312500   
   142       C          5.04988600      8.15491600     19.55687500   
   143       C          4.51312500     17.08488600      3.88008400   
   144       C          7.52187500      6.98511400     15.91508400   
   145       C         13.00261400     22.56562500      9.89758400   
   146       C         23.10238600      1.50437500     21.93258400   
   147       C          2.13741600     11.06738600     10.53062500   
   148       C         21.93258400     23.10238600      1.50437500   
   149       C         10.53062500      2.13741600     11.06738600   
   150       C          9.89758400     13.00261400     22.56562500   
   151       C         14.17241600      0.96761400     13.53937500   
   152       C         22.56562500      9.89758400     13.00261400   
   153       C         13.53937500     14.17241600      0.96761400   
   154       C          1.50437500     21.93258400     23.10238600   
   155       C          0.96761400     13.53937500     14.17241600   
   156       C         11.06738600     10.53062500      2.13741600   
   157       C         23.22514300     21.99035200     23.90873100   
   158       C         12.87985700      2.07964800     11.87373100   
   159       C         12.19626900      0.84485700      9.95535200   
   160       C         11.87373100     12.87985700      2.07964800   
   161       C          9.95535200     12.19626900      0.84485700   
   162       C         23.90873100     23.22514300     21.99035200   
   163       C          0.16126900     11.19014300     14.11464800   
   164       C         21.99035200     23.90873100     23.22514300   
   165       C         14.11464800      0.16126900     11.19014300   
   166       C          2.07964800     11.87373100     12.87985700   
   167       C         11.19014300     14.11464800      0.16126900   
   168       C          0.84485700      9.95535200     12.19626900   
   169       C         15.97285200      5.17264300      6.17876900   
   170       C         20.13214800     18.89735700     18.21376900   
   171       C          5.85623100      8.09714800     17.20764300   
   172       C         18.21376900     20.13214800     18.89735700   
   173       C         17.20764300      5.85623100      8.09714800   
   174       C          6.17876900     15.97285200      5.17264300   
   175       C         17.89123100      3.93785200      6.86235700   
   176       C          5.17264300      6.17876900     15.97285200   
   177       C          6.86235700     17.89123100      3.93785200   
   178       C         18.89735700     18.21376900     20.13214800   
   179       C          3.93785200      6.86235700     17.89123100   
   180       C          8.09714800     17.20764300      5.85623100   
   181       C         17.16672400     16.79123200     21.00829600   
   182       C         18.93827600      7.27876800      8.97329600   
   183       C         15.09670400      6.90327600      4.75623200   
   184       C          8.97329600     18.93827600      7.27876800   
   185       C          4.75623200     15.09670400      6.90327600   
   186       C         21.00829600     17.16672400     16.79123200   
   187       C          3.06170400      5.13172400     19.31376800   
   188       C         16.79123200     21.00829600     17.16672400   
   189       C         19.31376800      3.06170400      5.13172400   
   190       C          7.27876800      8.97329600     18.93827600   
   191       C          5.13172400     19.31376800      3.06170400   
   192       C          6.90327600      4.75623200     15.09670400   
   193       C         10.77373200     23.18422400      9.07920400   
   194       C          1.26126800      0.88577600     21.11420400   
   195       C          2.95579600     13.29626800     11.14922400   
   196       C         21.11420400      1.26126800      0.88577600   
   197       C         11.14922400      2.95579600     13.29626800   
   198       C          9.07920400     10.77373200     23.18422400   
   199       C         14.99079600     22.80873200     12.92077600   
   200       C         23.18422400      9.07920400     10.77373200   
   201       C         12.92077600     14.99079600     22.80873200   
   202       C          0.88577600     21.11420400      1.26126800   
   203       C         22.80873200     12.92077600     14.99079600   
   204       C         13.29626800     11.14922400      2.95579600   
   205       C         16.16300500     17.81420700     20.72908400   
   206       C         19.94199500      6.25579300      8.69408400   
   207       C         15.37591600      7.90699500      5.77920700   
   208       C          8.69408400     19.94199500      6.25579300   
   209       C          5.77920700     15.37591600      7.90699500   
   210       C         20.72908400     16.16300500     17.81420700   
   211       C          3.34091600      4.12800500     18.29079300   
   212       C         17.81420700     20.72908400     16.16300500   
   213       C         18.29079300      3.34091600      4.12800500   
   214       C          6.25579300      8.69408400     19.94199500   
   215       C          4.12800500     18.29079300      3.34091600   
   216       C          7.90699500      5.77920700     15.37591600   
   217       C         11.79670700     22.18050500      9.35841600   
   218       C          0.23829300      1.88949500     21.39341600   
   219       C          2.67658400     12.27329300     10.14550500   
   220       C         21.39341600      0.23829300      1.88949500   
   221       C         10.14550500      2.67658400     12.27329300   
   222       C          9.35841600     11.79670700     22.18050500   
   223       C         14.71158400     23.83170700     13.92449500   
   224       C         22.18050500      9.35841600     11.79670700   
   225       C         13.92449500     14.71158400     23.83170700   
   226       C          1.88949500     21.39341600      0.23829300   
   227       C         23.83170700     13.92449500     14.71158400   
   228       C         12.27329300     10.14550500      2.67658400   
   229       C         19.29932600     15.89101400     20.03346100   
   230       C         16.80567400      8.17898600      7.99846100   
   231       C         16.07153900      4.77067400      3.85601400   
   232       C          7.99846100     16.80567400      8.17898600   
   233       C          3.85601400     16.07153900      4.77067400   
   234       C         20.03346100     19.29932600     15.89101400   
   235       C          4.03653900      7.26432600     20.21398600   
   236       C         15.89101400     20.03346100     19.29932600   
   237       C         20.21398600      4.03653900      7.26432600   
   238       C          8.17898600      7.99846100     16.80567400   
   239       C          7.26432600     20.21398600      4.03653900   
   240       C          4.77067400      3.85601400     16.07153900   
   241       C          9.87351400      1.24682600     10.05403900   
   242       C          2.16148600     22.82317400     22.08903900   
   243       C          1.98096100     14.19648600     13.28182600   
   244       C         22.08903900      2.16148600     22.82317400   
   245       C         13.28182600      1.98096100     14.19648600   
   246       C         10.05403900      9.87351400      1.24682600   
   247       C         14.01596100     21.90851400     10.78817400   
   248       C          1.24682600     10.05403900      9.87351400   
   249       C         10.78817400     14.01596100     21.90851400   
   250       C         22.82317400     22.08903900      2.16148600   
   251       C         21.90851400     10.78817400     14.01596100   
   252       C         14.19648600     13.28182600      1.98096100   
   253       C         16.88029100     15.47701000     21.48728900   
   254       C         19.22470900      8.59299000      9.45228900   
   255       C         14.61771100      7.18970900      3.44201000   
   256       C          9.45228900     19.22470900      8.59299000   
   257       C          3.44201000     14.61771100      7.18970900   
   258       C         21.48728900     16.88029100     15.47701000   
   259       C          2.58271100      4.84529100     20.62799000   
   260       C         15.47701000     21.48728900     16.88029100   
   261       C         20.62799000      2.58271100      4.84529100   
   262       C          8.59299000      9.45228900     19.22470900   
   263       C          4.84529100     20.62799000      2.58271100   
   264       C          7.18970900      3.44201000     14.61771100   
   265       C          9.45951000     22.89779100      8.60021100   
   266       C          2.57549000      1.17220900     20.63521100   
   267       C          3.43478900     14.61049000     10.86279100   
   268       C         20.63521100      2.57549000      1.17220900   
   269       C         10.86279100      3.43478900     14.61049000   
   270       C          8.60021100      9.45951000     22.89779100   
   271       C         15.46978900     21.49451000     13.20720900   
   272       C         22.89779100      8.60021100      9.45951000   
   273       C         13.20720900     15.46978900     21.49451000   
   274       C          1.17220900     20.63521100      2.57549000   
   275       C         21.49451000     13.20720900     15.46978900   
   276       C         14.61049000     10.86279100      3.43478900   
   277       B         19.21748800     19.98050700     17.98510400   
   278       B         16.88751200      4.08949300      5.95010400   
   279       B         18.11989600      4.85251200      7.94550700   
   280       B          5.95010400     16.88751200      4.08949300   
   281       B          7.94550700     18.11989600      4.85251200   
   282       B         17.98510400     19.21748800     19.98050700   
   283       B          6.08489600      7.18248800     16.12449300   
   284       B         19.98050700     17.98510400     19.21748800   
   285       B         16.12449300      6.08489600      7.18248800   
   286       B          4.08949300      5.95010400     16.88751200   
   287       B          7.18248800     16.12449300      6.08489600   
   288       B          4.85251200      7.94550700     18.11989600   
   289       H         13.45031600     21.59801100     17.55184400   
   290       H         22.65468400      2.47198900      5.51684400   
   291       H         18.55315600     10.61968400      9.56301100   
   292       H          5.51684400     22.65468400      2.47198900   
   293       H          9.56301100     18.55315600     10.61968400   
   294       H         17.55184400     13.45031600     21.59801100   
   295       H          6.51815600      1.41531600     14.50698900   
   296       H         21.59801100     17.55184400     13.45031600   
   297       H         14.50698900      6.51815600      1.41531600   
   298       H          2.47198900      5.51684400     22.65468400   
   299       H          1.41531600     14.50698900      6.51815600   
   300       H         10.61968400      9.56301100     18.55315600   
   301       H         15.58051100     19.46781600     12.53565600   
   302       H         20.52448900      4.60218400      0.50065600   
   303       H         23.56934400      8.48948900      7.43281600   
   304       H          0.50065600     20.52448900      4.60218400   
   305       H          7.43281600     23.56934400      8.48948900   
   306       H         12.53565600     15.58051100     19.46781600   
   307       H         11.53434400      3.54551100     16.63718400   
   308       H         19.46781600     12.53565600     15.58051100   
   309       H         16.63718400     11.53434400      3.54551100   
   310       H          4.60218400      0.50065600     20.52448900   
   311       H          3.54551100     16.63718400     11.53434400   
   312       H          8.48948900      7.43281600     23.56934400   
   313       H         13.74878400     20.12733400     19.49910700   
   314       H         22.35621600      3.94266600      7.46410700   
   315       H         16.60589300     10.32121600      8.09233400   
   316       H          7.46410700     22.35621600      3.94266600   
   317       H          8.09233400     16.60589300     10.32121600   
   318       H         19.49910700     13.74878400     20.12733400   
   319       H          4.57089300      1.71378400     15.97766600   
   320       H         20.12733400     19.49910700     13.74878400   
   321       H         15.97766600      4.57089300      1.71378400   
   322       H          3.94266600      7.46410700     22.35621600   
   323       H          1.71378400     15.97766600      4.57089300   
   324       H         10.32121600      8.09233400     16.60589300   
   325       H         14.10983400     19.76628400     10.58839300   
   326       H         21.99516600      4.30371600     22.62339300   
   327       H          1.44660700      9.96016600      7.73128400   
   328       H         22.62339300     21.99516600      4.30371600   
   329       H          7.73128400      1.44660700      9.96016600   
   330       H         10.58839300     14.10983400     19.76628400   
   331       H         13.48160700      2.07483400     16.33871600   
   332       H         19.76628400     10.58839300     14.10983400   
   333       H         16.33871600     13.48160700      2.07483400   
   334       H          4.30371600     22.62339300     21.99516600   
   335       H          2.07483400     16.33871600     13.48160700   
   336       H          9.96016600      7.73128400      1.44660700   
   337       H         14.00392600     17.89845200     20.33674300   
   338       H         22.10107400      6.17154800      8.30174300   
   339       H         15.76825700     10.06607400      5.86345200   
   340       H          8.30174300     22.10107400      6.17154800   
   341       H          5.86345200     15.76825700     10.06607400   
   342       H         20.33674300     14.00392600     17.89845200   
   343       H          3.73325700      1.96892600     18.20654800   
   344       H         17.89845200     20.33674300     14.00392600   
   345       H         18.20654800      3.73325700      1.96892600   
   346       H          6.17154800      8.30174300     22.10107400   
   347       H          1.96892600     18.20654800      3.73325700   
   348       H         10.06607400      5.86345200     15.76825700   
   349       H         11.88095200     20.02142600      9.75075700   
   350       H          0.15404800      4.04857400     21.78575700   
   351       H          2.28424300     12.18904800      7.98642600   
   352       H         21.78575700      0.15404800      4.04857400   
   353       H          7.98642600      2.28424300     12.18904800   
   354       H          9.75075700     11.88095200     20.02142600   
   355       H         14.31924300     23.91595200     16.08357400   
   356       H         20.02142600      9.75075700     11.88095200   
   357       H         16.08357400     14.31924300     23.91595200   
   358       H          4.04857400     21.78575700      0.15404800   
   359       H         23.91595200     16.08357400     14.31924300   
   360       H         12.18904800      7.98642600      2.28424300   
   361      Tv         24.07000000      0.00000000      0.00000000   
   362      Tv          0.00000000     24.07000000      0.00000000   
   363      Tv          0.00000000      0.00000000     24.07000000   


                   THE SYSTEM IS A SOLID


                UNIT CELL TRANSLATION VECTORS

              X                Y              Z
    T1 =    24.0700000      0.0000000      0.0000000
    T2 =     0.0000000     24.0700000      0.0000000
    T3 =     0.0000000      0.0000000     24.0700000


          CARTESIAN COORDINATES 

    NO.       ATOM           X           Y           Z

     1         C         17.7661     14.4613     21.2297
     2         C         18.3389      9.6087      9.1947
     3         C         14.8753      6.3039      2.4263
     4         C          9.1947     18.3389      9.6087
     5         C          2.4263     14.8753      6.3039
     6         C         21.2297     17.7661     14.4613
     7         C          2.8403      5.7311     21.6437
     8         C         14.4613     21.2297     17.7661
     9         C         21.6437      2.8403      5.7311
    10         C          9.6087      9.1947     18.3389
    11         C          5.7311     21.6437      2.8403
    12         C          6.3039      2.4263     14.8753
    13         C          8.4438     23.7836      8.8578
    14         C          3.5912      0.2864     20.8928
    15         C          3.1772     15.6262     11.7486
    16         C         20.8928      3.5912      0.2864
    17         C         11.7486      3.1772     15.6262
    18         C          8.8578      8.4438     23.7836
    19         C         15.2122     20.4788     12.3214
    20         C         23.7836      8.8578      8.4438
    21         C         12.3214     15.2122     20.4788
    22         C          0.2864     20.8928      3.5912
    23         C         20.4788     12.3214     15.2122
    24         C         15.6262     11.7486      3.1772
    25         C         18.9407     14.6370     20.4210
    26         C         17.1643      9.4330      8.3860
    27         C         15.6840      5.1293      2.6020
    28         C          8.3860     17.1643      9.4330
    29         C          2.6020     15.6840      5.1293
    30         C         20.4210     18.9407     14.6370
    31         C          3.6490      6.9057     21.4680
    32         C         14.6370     20.4210     18.9407
    33         C         21.4680      3.6490      6.9057
    34         C          9.4330      8.3860     17.1643
    35         C          6.9057     21.4680      3.6490
    36         C          5.1293      2.6020     15.6840
    37         C          8.6195      0.8882      9.6665
    38         C          3.4155     23.1818     21.7015
    39         C          2.3685     15.4505     12.9232
    40         C         21.7015      3.4155     23.1818
    41         C         12.9232      2.3685     15.4505
    42         C          9.6665      8.6195      0.8882
    43         C         14.4035     20.6545     11.1468
    44         C          0.8882      9.6665      8.6195
    45         C         11.1468     14.4035     20.6545
    46         C         23.1818     21.7015      3.4155
    47         C         20.6545     11.1468     14.4035
    48         C         15.4505     12.9232      2.3685
    49         C         14.7934     17.3039     20.8133
    50         C         21.3116      6.7661      8.7783
    51         C         15.2917      9.2766      5.2689
    52         C          8.7783     21.3116      6.7661
    53         C          5.2689     15.2917      9.2766
    54         C         20.8133     14.7934     17.3039
    55         C          3.2567      2.7584     18.8011
    56         C         17.3039     20.8133     14.7934
    57         C         18.8011      3.2567      2.7584
    58         C          6.7661      8.7783     21.3116
    59         C          2.7584     18.8011      3.2567
    60         C          9.2766      5.2689     15.2917
    61         C         11.2864     20.8109      9.2742
    62         C          0.7486      3.2591     21.3092
    63         C          2.7608     12.7836      8.7759
    64         C         21.3092      0.7486      3.2591
    65         C          8.7759      2.7608     12.7836
    66         C          9.2742     11.2864     20.8109
    67         C         14.7958     23.3214     15.2941
    68         C         20.8109      9.2742     11.2864
    69         C         15.2941     14.7958     23.3214
    70         C          3.2591     21.3092      0.7486
    71         C         23.3214     15.2941     14.7958
    72         C         12.7836      8.7759      2.7608
    73         C         15.5588     15.3831     22.1420
    74         C         20.5462      8.6869     10.1070
    75         C         13.9630      8.5112      3.3481
    76         C         10.1070     20.5462      8.6869
    77         C          3.3481     13.9630      8.5112
    78         C         22.1420     15.5588     15.3831
    79         C          1.9280      3.5238     20.7219
    80         C         15.3831     22.1420     15.5588
    81         C         20.7219      1.9280      3.5238
    82         C          8.6869     10.1070     20.5462
    83         C          3.5238     20.7219      1.9280
    84         C          8.5112      3.3481     13.9630
    85         C          9.3656     21.5763      7.9455
    86         C          2.6694      2.4937     19.9805
    87         C          4.0895     14.7044      9.5413
    88         C         19.9805      2.6694      2.4937
    89         C          9.5413      4.0895     14.7044
    90         C          7.9455      9.3656     21.5763
    91         C         16.1245     21.4006     14.5287
    92         C         21.5763      7.9455      9.3656
    93         C         14.5287     16.1245     21.4006
    94         C          2.4937     19.9805      2.6694
    95         C         21.4006     14.5287     16.1245
    96         C         14.7044      9.5413      4.0895
    97         C         13.9630      1.1650     12.1024
    98         C         22.1420     22.9050      0.0674
    99         C         24.0026     10.1070     13.2000
   100         C          0.0674     22.1420     22.9050
   101         C         13.2000     24.0026     10.1070
   102         C         12.1024     13.9630      1.1650
   103         C         11.9676      1.9280     10.8700
   104         C          1.1650     12.1024     13.9630
   105         C         10.8700     11.9676      1.9280
   106         C         22.9050      0.0674     22.1420
   107         C          1.9280     10.8700     11.9676
   108         C         10.1070     13.2000     24.0026
   109         C         18.4569     16.9453     20.5630
   110         C         17.6481      7.1247      8.5280
   111         C         15.5420      5.6131      4.9103
   112         C          8.5280     17.6481      7.1247
   113         C          4.9103     15.5420      5.6131
   114         C         20.5630     18.4569     16.9453
   115         C          3.5070      6.4219     19.1597
   116         C         16.9453     20.5630     18.4569
   117         C         19.1597      3.5070      6.4219
   118         C          7.1247      8.5280     17.6481
   119         C          6.4219     19.1597      3.5070
   120         C          5.6131      4.9103     15.5420
   121         C         10.9278      0.4044      9.5245
   122         C          1.1072     23.6656     21.5595
   123         C          2.5105     13.1422     12.4394
   124         C         21.5595      1.1072     23.6656
   125         C         12.4394      2.5105     13.1422
   126         C          9.5245     10.9278      0.4044
   127         C         14.5455     22.9628     11.6306
   128         C          0.4044      9.5245     10.9278
   129         C         11.6306     14.5455     22.9628
   130         C         23.6656     21.5595      1.1072
   131         C         22.9628     11.6306     14.5455
   132         C         13.1422     12.4394      2.5105
   133         C         16.5481     19.0201     20.1899
   134         C         19.5569      5.0499      8.1549
   135         C         15.9151      7.5219      6.9851
   136         C          8.1549     19.5569      5.0499
   137         C          6.9851     15.9151      7.5219
   138         C         20.1899     16.5481     19.0201
   139         C          3.8801      4.5131     17.0849
   140         C         19.0201     20.1899     16.5481
   141         C         17.0849      3.8801      4.5131
   142         C          5.0499      8.1549     19.5569
   143         C          4.5131     17.0849      3.8801
   144         C          7.5219      6.9851     15.9151
   145         C         13.0026     22.5656      9.8976
   146         C         23.1024      1.5044     21.9326
   147         C          2.1374     11.0674     10.5306
   148         C         21.9326     23.1024      1.5044
   149         C         10.5306      2.1374     11.0674
   150         C          9.8976     13.0026     22.5656
   151         C         14.1724      0.9676     13.5394
   152         C         22.5656      9.8976     13.0026
   153         C         13.5394     14.1724      0.9676
   154         C          1.5044     21.9326     23.1024
   155         C          0.9676     13.5394     14.1724
   156         C         11.0674     10.5306      2.1374
   157         C         23.2251     21.9904     23.9087
   158         C         12.8799      2.0796     11.8737
   159         C         12.1963      0.8449      9.9554
   160         C         11.8737     12.8799      2.0796
   161         C          9.9554     12.1963      0.8449
   162         C         23.9087     23.2251     21.9904
   163         C          0.1613     11.1901     14.1146
   164         C         21.9904     23.9087     23.2251
   165         C         14.1146      0.1613     11.1901
   166         C          2.0796     11.8737     12.8799
   167         C         11.1901     14.1146      0.1613
   168         C          0.8449      9.9554     12.1963
   169         C         15.9729      5.1726      6.1788
   170         C         20.1321     18.8974     18.2138
   171         C          5.8562      8.0971     17.2076
   172         C         18.2138     20.1321     18.8974
   173         C         17.2076      5.8562      8.0971
   174         C          6.1788     15.9729      5.1726
   175         C         17.8912      3.9379      6.8624
   176         C          5.1726      6.1788     15.9729
   177         C          6.8624     17.8912      3.9379
   178         C         18.8974     18.2138     20.1321
   179         C          3.9379      6.8624     17.8912
   180         C          8.0971     17.2076      5.8562
   181         C         17.1667     16.7912     21.0083
   182         C         18.9383      7.2788      8.9733
   183         C         15.0967      6.9033      4.7562
   184         C          8.9733     18.9383      7.2788
   185         C          4.7562     15.0967      6.9033
   186         C         21.0083     17.1667     16.7912
   187         C          3.0617      5.1317     19.3138
   188         C         16.7912     21.0083     17.1667
   189         C         19.3138      3.0617      5.1317
   190         C          7.2788      8.9733     18.9383
   191         C          5.1317     19.3138      3.0617
   192         C          6.9033      4.7562     15.0967
   193         C         10.7737     23.1842      9.0792
   194         C          1.2613      0.8858     21.1142
   195         C          2.9558     13.2963     11.1492
   196         C         21.1142      1.2613      0.8858
   197         C         11.1492      2.9558     13.2963
   198         C          9.0792     10.7737     23.1842
   199         C         14.9908     22.8087     12.9208
   200         C         23.1842      9.0792     10.7737
   201         C         12.9208     14.9908     22.8087
   202         C          0.8858     21.1142      1.2613
   203         C         22.8087     12.9208     14.9908
   204         C         13.2963     11.1492      2.9558
   205         C         16.1630     17.8142     20.7291
   206         C         19.9420      6.2558      8.6941
   207         C         15.3759      7.9070      5.7792
   208         C          8.6941     19.9420      6.2558
   209         C          5.7792     15.3759      7.9070
   210         C         20.7291     16.1630     17.8142
   211         C          3.3409      4.1280     18.2908
   212         C         17.8142     20.7291     16.1630
   213         C         18.2908      3.3409      4.1280
   214         C          6.2558      8.6941     19.9420
   215         C          4.1280     18.2908      3.3409
   216         C          7.9070      5.7792     15.3759
   217         C         11.7967     22.1805      9.3584
   218         C          0.2383      1.8895     21.3934
   219         C          2.6766     12.2733     10.1455
   220         C         21.3934      0.2383      1.8895
   221         C         10.1455      2.6766     12.2733
   222         C          9.3584     11.7967     22.1805
   223         C         14.7116     23.8317     13.9245
   224         C         22.1805      9.3584     11.7967
   225         C         13.9245     14.7116     23.8317
   226         C          1.8895     21.3934      0.2383
   227         C         23.8317     13.9245     14.7116
   228         C         12.2733     10.1455      2.6766
   229         C         19.2993     15.8910     20.0335
   230         C         16.8057      8.1790      7.9985
   231         C         16.0715      4.7707      3.8560
   232         C          7.9985     16.8057      8.1790
   233         C          3.8560     16.0715      4.7707
   234         C         20.0335     19.2993     15.8910
   235         C          4.0365      7.2643     20.2140
   236         C         15.8910     20.0335     19.2993
   237         C         20.2140      4.0365      7.2643
   238         C          8.1790      7.9985     16.8057
   239         C          7.2643     20.2140      4.0365
   240         C          4.7707      3.8560     16.0715
   241         C          9.8735      1.2468     10.0540
   242         C          2.1615     22.8232     22.0890
   243         C          1.9810     14.1965     13.2818
   244         C         22.0890      2.1615     22.8232
   245         C         13.2818      1.9810     14.1965
   246         C         10.0540      9.8735      1.2468
   247         C         14.0160     21.9085     10.7882
   248         C          1.2468     10.0540      9.8735
   249         C         10.7882     14.0160     21.9085
   250         C         22.8232     22.0890      2.1615
   251         C         21.9085     10.7882     14.0160
   252         C         14.1965     13.2818      1.9810
   253         C         16.8803     15.4770     21.4873
   254         C         19.2247      8.5930      9.4523
   255         C         14.6177      7.1897      3.4420
   256         C          9.4523     19.2247      8.5930
   257         C          3.4420     14.6177      7.1897
   258         C         21.4873     16.8803     15.4770
   259         C          2.5827      4.8453     20.6280
   260         C         15.4770     21.4873     16.8803
   261         C         20.6280      2.5827      4.8453
   262         C          8.5930      9.4523     19.2247
   263         C          4.8453     20.6280      2.5827
   264         C          7.1897      3.4420     14.6177
   265         C          9.4595     22.8978      8.6002
   266         C          2.5755      1.1722     20.6352
   267         C          3.4348     14.6105     10.8628
   268         C         20.6352      2.5755      1.1722
   269         C         10.8628      3.4348     14.6105
   270         C          8.6002      9.4595     22.8978
   271         C         15.4698     21.4945     13.2072
   272         C         22.8978      8.6002      9.4595
   273         C         13.2072     15.4698     21.4945
   274         C          1.1722     20.6352      2.5755
   275         C         21.4945     13.2072     15.4698
   276         C         14.6105     10.8628      3.4348
   277         B         19.2175     19.9805     17.9851
   278         B         16.8875      4.0895      5.9501
   279         B         18.1199      4.8525      7.9455
   280         B          5.9501     16.8875      4.0895
   281         B          7.9455     18.1199      4.8525
   282         B         17.9851     19.2175     19.9805
   283         B          6.0849      7.1825     16.1245
   284         B         19.9805     17.9851     19.2175
   285         B         16.1245      6.0849      7.1825
   286         B          4.0895      5.9501     16.8875
   287         B          7.1825     16.1245      6.0849
   288         B          4.8525      7.9455     18.1199
   289         H         13.4503     21.5980     17.5518
   290         H         22.6547      2.4720      5.5168
   291         H         18.5532     10.6197      9.5630
   292         H          5.5168     22.6547      2.4720
   293         H          9.5630     18.5532     10.6197
   294         H         17.5518     13.4503     21.5980
   295         H          6.5182      1.4153     14.5070
   296         H         21.5980     17.5518     13.4503
   297         H         14.5070      6.5182      1.4153
   298         H          2.4720      5.5168     22.6547
   299         H          1.4153     14.5070      6.5182
   300         H         10.6197      9.5630     18.5532
   301         H         15.5805     19.4678     12.5357
   302         H         20.5245      4.6022      0.5007
   303         H         23.5693      8.4895      7.4328
   304         H          0.5007     20.5245      4.6022
   305         H          7.4328     23.5693      8.4895
   306         H         12.5357     15.5805     19.4678
   307         H         11.5343      3.5455     16.6372
   308         H         19.4678     12.5357     15.5805
   309         H         16.6372     11.5343      3.5455
   310         H          4.6022      0.5007     20.5245
   311         H          3.5455     16.6372     11.5343
   312         H          8.4895      7.4328     23.5693
   313         H         13.7488     20.1273     19.4991
   314         H         22.3562      3.9427      7.4641
   315         H         16.6059     10.3212      8.0923
   316         H          7.4641     22.3562      3.9427
   317         H          8.0923     16.6059     10.3212
   318         H         19.4991     13.7488     20.1273
   319         H          4.5709      1.7138     15.9777
   320         H         20.1273     19.4991     13.7488
   321         H         15.9777      4.5709      1.7138
   322         H          3.9427      7.4641     22.3562
   323         H          1.7138     15.9777      4.5709
   324         H         10.3212      8.0923     16.6059
   325         H         14.1098     19.7663     10.5884
   326         H         21.9952      4.3037     22.6234
   327         H          1.4466      9.9602      7.7313
   328         H         22.6234     21.9952      4.3037
   329         H          7.7313      1.4466      9.9602
   330         H         10.5884     14.1098     19.7663
   331         H         13.4816      2.0748     16.3387
   332         H         19.7663     10.5884     14.1098
   333         H         16.3387     13.4816      2.0748
   334         H          4.3037     22.6234     21.9952
   335         H          2.0748     16.3387     13.4816
   336         H          9.9602      7.7313      1.4466
   337         H         14.0039     17.8985     20.3367
   338         H         22.1011      6.1715      8.3017
   339         H         15.7683     10.0661      5.8635
   340         H          8.3017     22.1011      6.1715
   341         H          5.8635     15.7683     10.0661
   342         H         20.3367     14.0039     17.8985
   343         H          3.7333      1.9689     18.2065
   344         H         17.8985     20.3367     14.0039
   345         H         18.2065      3.7333      1.9689
   346         H          6.1715      8.3017     22.1011
   347         H          1.9689     18.2065      3.7333
   348         H         10.0661      5.8635     15.7683
   349         H         11.8810     20.0214      9.7508
   350         H          0.1540      4.0486     21.7858
   351         H          2.2842     12.1890      7.9864
   352         H         21.7858      0.1540      4.0486
   353         H          7.9864      2.2842     12.1890
   354         H          9.7508     11.8810     20.0214
   355         H         14.3192     23.9160     16.0836
   356         H         20.0214      9.7508     11.8810
   357         H         16.0836     14.3192     23.9160
   358         H          4.0486     21.7858      0.1540
   359         H         23.9160     16.0836     14.3192
   360         H         12.1890      7.9864      2.2842

 General Reference for PM7:
 "Optimization of Parameters for Semiempirical Methods VI: More Modifications to the 
 NDDO Approximations and Re-optimization of Parameters", J. J. P. Stewart, J. Mol. Mod., 1:32, 19 (2013)
 https://link.springer.com/article/10.1007/s00894-012-1667-x

           Empirical Formula: C276 H72 B12  =   360 atoms



      RHF CALCULATION, NO. OF DOUBLY OCCUPIED LEVELS = 606


 -------------------------------------------------------------------------------
 PM7 CHARGE=0 NOOPT




     NO PARAMETERS MARKED FOR OPTIMIZATION, SO 1SCF WAS USED  
     SCF FIELD WAS ACHIEVED                                   


                              PM7 CALCULATION
                                                       MOPAC v22.1.0 Linux
                                                       Thu Feb  1 15:33:24 2024




          FINAL HEAT OF FORMATION =       2828.78039 KCAL/MOL =   11835.61716 KJ/MOL
          H.o.F. per unit cell    =        235.73170 KCAL, for 12 unit cells, unit cell = C23 H6 B1



          IONIZATION POTENTIAL    =          7.218543 EV
          HOMO LUMO ENERGIES (EV) =         -7.219 -5.104
          NO. OF FILLED LEVELS    =        606
          MOLECULAR WEIGHT        =       3517.3248

                   THE SYSTEM IS A SOLID


                UNIT CELL TRANSLATION VECTORS

              X                Y              Z
    T1 =    24.0700000      0.0000000      0.0000000
    T2 =     0.0000000     24.0700000      0.0000000
    T3 =     0.0000000      0.0000000     24.0700000

          VOLUME OF UNIT CELL     =      13945.313 CUBIC ANGSTROMS

          DENSITY                 =          0.419 GRAMS/CC
                              A   =         24.070 ANGSTROMS
                              B   =         24.070 ANGSTROMS
                              C   =         24.070 ANGSTROMS
                            ALPHA =         90.000 DEGREES
                            BETA  =         90.000 DEGREES
                            GAMMA =         90.000 DEGREES



          SCF CALCULATIONS        =          1

          WALL-CLOCK TIME         =          1 MINUTE AND 50.988 SECONDS
          COMPUTATION TIME        =          1 MINUTE AND 50.979 SECONDS




   ATOM   CHEMICAL          X               Y               Z
  NUMBER   SYMBOL      (ANGSTROMS)     (ANGSTROMS)     (ANGSTROMS)

     1       C         17.76606700     14.46125600     21.22974000   
     2       C         18.33893300      9.60874400      9.19474000   
     3       C         14.87526000      6.30393300      2.42625600   
     4       C          9.19474000     18.33893300      9.60874400   
     5       C          2.42625600     14.87526000      6.30393300   
     6       C         21.22974000     17.76606700     14.46125600   
     7       C          2.84026000      5.73106700     21.64374400   
     8       C         14.46125600     21.22974000     17.76606700   
     9       C         21.64374400      2.84026000      5.73106700   
    10       C          9.60874400      9.19474000     18.33893300   
    11       C          5.73106700     21.64374400      2.84026000   
    12       C          6.30393300      2.42625600     14.87526000   
    13       C          8.44375600     23.78356700      8.85776000   
    14       C          3.59124400      0.28643300     20.89276000   
    15       C          3.17724000     15.62624400     11.74856700   
    16       C         20.89276000      3.59124400      0.28643300   
    17       C         11.74856700      3.17724000     15.62624400   
    18       C          8.85776000      8.44375600     23.78356700   
    19       C         15.21224000     20.47875600     12.32143300   
    20       C         23.78356700      8.85776000      8.44375600   
    21       C         12.32143300     15.21224000     20.47875600   
    22       C          0.28643300     20.89276000      3.59124400   
    23       C         20.47875600     12.32143300     15.21224000   
    24       C         15.62624400     11.74856700      3.17724000   
    25       C         18.94068300     14.63696700     20.42098800   
    26       C         17.16431700      9.43303300      8.38598800   
    27       C         15.68401200      5.12931700      2.60196700   
    28       C          8.38598800     17.16431700      9.43303300   
    29       C          2.60196700     15.68401200      5.12931700   
    30       C         20.42098800     18.94068300     14.63696700   
    31       C          3.64901200      6.90568300     21.46803300   
    32       C         14.63696700     20.42098800     18.94068300   
    33       C         21.46803300      3.64901200      6.90568300   
    34       C          9.43303300      8.38598800     17.16431700   
    35       C          6.90568300     21.46803300      3.64901200   
    36       C          5.12931700      2.60196700     15.68401200   
    37       C          8.61946700      0.88818300      9.66651200   
    38       C          3.41553300     23.18181700     21.70151200   
    39       C          2.36848800     15.45053300     12.92318300   
    40       C         21.70151200      3.41553300     23.18181700   
    41       C         12.92318300      2.36848800     15.45053300   
    42       C          9.66651200      8.61946700      0.88818300   
    43       C         14.40348800     20.65446700     11.14681700   
    44       C          0.88818300      9.66651200      8.61946700   
    45       C         11.14681700     14.40348800     20.65446700   
    46       C         23.18181700     21.70151200      3.41553300   
    47       C         20.65446700     11.14681700     14.40348800   
    48       C         15.45053300     12.92318300      2.36848800   
    49       C         14.79342200     17.30392300     20.81332900   
    50       C         21.31157800      6.76607700      8.77832900   
    51       C         15.29167100      9.27657800      5.26892300   
    52       C          8.77832900     21.31157800      6.76607700   
    53       C          5.26892300     15.29167100      9.27657800   
    54       C         20.81332900     14.79342200     17.30392300   
    55       C          3.25667100      2.75842200     18.80107700   
    56       C         17.30392300     20.81332900     14.79342200   
    57       C         18.80107700      3.25667100      2.75842200   
    58       C          6.76607700      8.77832900     21.31157800   
    59       C          2.75842200     18.80107700      3.25667100   
    60       C          9.27657800      5.26892300     15.29167100   
    61       C         11.28642300     20.81092200      9.27417100   
    62       C          0.74857700      3.25907800     21.30917100   
    63       C          2.76082900     12.78357700      8.77592200   
    64       C         21.30917100      0.74857700      3.25907800   
    65       C          8.77592200      2.76082900     12.78357700   
    66       C          9.27417100     11.28642300     20.81092200   
    67       C         14.79582900     23.32142300     15.29407800   
    68       C         20.81092200      9.27417100     11.28642300   
    69       C         15.29407800     14.79582900     23.32142300   
    70       C          3.25907800     21.30917100      0.74857700   
    71       C         23.32142300     15.29407800     14.79582900   
    72       C         12.78357700      8.77592200      2.76082900   
    73       C         15.55884800     15.38313700     22.14199300   
    74       C         20.54615200      8.68686300     10.10699300   
    75       C         13.96300700      8.51115200      3.34813700   
    76       C         10.10699300     20.54615200      8.68686300   
    77       C          3.34813700     13.96300700      8.51115200   
    78       C         22.14199300     15.55884800     15.38313700   
    79       C          1.92800700      3.52384800     20.72186300   
    80       C         15.38313700     22.14199300     15.55884800   
    81       C         20.72186300      1.92800700      3.52384800   
    82       C          8.68686300     10.10699300     20.54615200   
    83       C          3.52384800     20.72186300      1.92800700   
    84       C          8.51115200      3.34813700     13.96300700   
    85       C          9.36563700     21.57634800      7.94550700   
    86       C          2.66936300      2.49365200     19.98050700   
    87       C          4.08949300     14.70436300      9.54134800   
    88       C         19.98050700      2.66936300      2.49365200   
    89       C          9.54134800      4.08949300     14.70436300   
    90       C          7.94550700      9.36563700     21.57634800   
    91       C         16.12449300     21.40063700     14.52865200   
    92       C         21.57634800      7.94550700      9.36563700   
    93       C         14.52865200     16.12449300     21.40063700   
    94       C          2.49365200     19.98050700      2.66936300   
    95       C         21.40063700     14.52865200     16.12449300   
    96       C         14.70436300      9.54134800      4.08949300   
    97       C         13.96300700      1.16498800     12.10239600   
    98       C         22.14199300     22.90501200      0.06739600   
    99       C         24.00260400     10.10699300     13.19998800   
   100       C          0.06739600     22.14199300     22.90501200   
   101       C         13.19998800     24.00260400     10.10699300   
   102       C         12.10239600     13.96300700      1.16498800   
   103       C         11.96760400      1.92800700     10.87001200   
   104       C          1.16498800     12.10239600     13.96300700   
   105       C         10.87001200     11.96760400      1.92800700   
   106       C         22.90501200      0.06739600     22.14199300   
   107       C          1.92800700     10.87001200     11.96760400   
   108       C         10.10699300     13.19998800     24.00260400   
   109       C         18.45687600     16.94528000     20.56300100   
   110       C         17.64812400      7.12472000      8.52800100   
   111       C         15.54199900      5.61312400      4.91028000   
   112       C          8.52800100     17.64812400      7.12472000   
   113       C          4.91028000     15.54199900      5.61312400   
   114       C         20.56300100     18.45687600     16.94528000   
   115       C          3.50699900      6.42187600     19.15972000   
   116       C         16.94528000     20.56300100     18.45687600   
   117       C         19.15972000      3.50699900      6.42187600   
   118       C          7.12472000      8.52800100     17.64812400   
   119       C          6.42187600     19.15972000      3.50699900   
   120       C          5.61312400      4.91028000     15.54199900   
   121       C         10.92778000      0.40437600      9.52449900   
   122       C          1.10722000     23.66562400     21.55949900   
   123       C          2.51050100     13.14222000     12.43937600   
   124       C         21.55949900      1.10722000     23.66562400   
   125       C         12.43937600      2.51050100     13.14222000   
   126       C          9.52449900     10.92778000      0.40437600   
   127       C         14.54550100     22.96278000     11.63062400   
   128       C          0.40437600      9.52449900     10.92778000   
   129       C         11.63062400     14.54550100     22.96278000   
   130       C         23.66562400     21.55949900      1.10722000   
   131       C         22.96278000     11.63062400     14.54550100   
   132       C         13.14222000     12.43937600      2.51050100   
   133       C         16.54812500     19.02011400     20.18991600   
   134       C         19.55687500      5.04988600      8.15491600   
   135       C         15.91508400      7.52187500      6.98511400   
   136       C          8.15491600     19.55687500      5.04988600   
   137       C          6.98511400     15.91508400      7.52187500   
   138       C         20.18991600     16.54812500     19.02011400   
   139       C          3.88008400      4.51312500     17.08488600   
   140       C         19.02011400     20.18991600     16.54812500   
   141       C         17.08488600      3.88008400      4.51312500   
   142       C          5.04988600      8.15491600     19.55687500   
   143       C          4.51312500     17.08488600      3.88008400   
   144       C          7.52187500      6.98511400     15.91508400   
   145       C         13.00261400     22.56562500      9.89758400   
   146       C         23.10238600      1.50437500     21.93258400   
   147       C          2.13741600     11.06738600     10.53062500   
   148       C         21.93258400     23.10238600      1.50437500   
   149       C         10.53062500      2.13741600     11.06738600   
   150       C          9.89758400     13.00261400     22.56562500   
   151       C         14.17241600      0.96761400     13.53937500   
   152       C         22.56562500      9.89758400     13.00261400   
   153       C         13.53937500     14.17241600      0.96761400   
   154       C          1.50437500     21.93258400     23.10238600   
   155       C          0.96761400     13.53937500     14.17241600   
   156       C         11.06738600     10.53062500      2.13741600   
   157       C         23.22514300     21.99035200     23.90873100   
   158       C         12.87985700      2.07964800     11.87373100   
   159       C         12.19626900      0.84485700      9.95535200   
   160       C         11.87373100     12.87985700      2.07964800   
   161       C          9.95535200     12.19626900      0.84485700   
   162       C         23.90873100     23.22514300     21.99035200   
   163       C          0.16126900     11.19014300     14.11464800   
   164       C         21.99035200     23.90873100     23.22514300   
   165       C         14.11464800      0.16126900     11.19014300   
   166       C          2.07964800     11.87373100     12.87985700   
   167       C         11.19014300     14.11464800      0.16126900   
   168       C          0.84485700      9.95535200     12.19626900   
   169       C         15.97285200      5.17264300      6.17876900   
   170       C         20.13214800     18.89735700     18.21376900   
   171       C          5.85623100      8.09714800     17.20764300   
   172       C         18.21376900     20.13214800     18.89735700   
   173       C         17.20764300      5.85623100      8.09714800   
   174       C          6.17876900     15.97285200      5.17264300   
   175       C         17.89123100      3.93785200      6.86235700   
   176       C          5.17264300      6.17876900     15.97285200   
   177       C          6.86235700     17.89123100      3.93785200   
   178       C         18.89735700     18.21376900     20.13214800   
   179       C          3.93785200      6.86235700     17.89123100   
   180       C          8.09714800     17.20764300      5.85623100   
   181       C         17.16672400     16.79123200     21.00829600   
   182       C         18.93827600      7.27876800      8.97329600   
   183       C         15.09670400      6.90327600      4.75623200   
   184       C          8.97329600     18.93827600      7.27876800   
   185       C          4.75623200     15.09670400      6.90327600   
   186       C         21.00829600     17.16672400     16.79123200   
   187       C          3.06170400      5.13172400     19.31376800   
   188       C         16.79123200     21.00829600     17.16672400   
   189       C         19.31376800      3.06170400      5.13172400   
   190       C          7.27876800      8.97329600     18.93827600   
   191       C          5.13172400     19.31376800      3.06170400   
   192       C          6.90327600      4.75623200     15.09670400   
   193       C         10.77373200     23.18422400      9.07920400   
   194       C          1.26126800      0.88577600     21.11420400   
   195       C          2.95579600     13.29626800     11.14922400   
   196       C         21.11420400      1.26126800      0.88577600   
   197       C         11.14922400      2.95579600     13.29626800   
   198       C          9.07920400     10.77373200     23.18422400   
   199       C         14.99079600     22.80873200     12.92077600   
   200       C         23.18422400      9.07920400     10.77373200   
   201       C         12.92077600     14.99079600     22.80873200   
   202       C          0.88577600     21.11420400      1.26126800   
   203       C         22.80873200     12.92077600     14.99079600   
   204       C         13.29626800     11.14922400      2.95579600   
   205       C         16.16300500     17.81420700     20.72908400   
   206       C         19.94199500      6.25579300      8.69408400   
   207       C         15.37591600      7.90699500      5.77920700   
   208       C          8.69408400     19.94199500      6.25579300   
   209       C          5.77920700     15.37591600      7.90699500   
   210       C         20.72908400     16.16300500     17.81420700   
   211       C          3.34091600      4.12800500     18.29079300   
   212       C         17.81420700     20.72908400     16.16300500   
   213       C         18.29079300      3.34091600      4.12800500   
   214       C          6.25579300      8.69408400     19.94199500   
   215       C          4.12800500     18.29079300      3.34091600   
   216       C          7.90699500      5.77920700     15.37591600   
   217       C         11.79670700     22.18050500      9.35841600   
   218       C          0.23829300      1.88949500     21.39341600   
   219       C          2.67658400     12.27329300     10.14550500   
   220       C         21.39341600      0.23829300      1.88949500   
   221       C         10.14550500      2.67658400     12.27329300   
   222       C          9.35841600     11.79670700     22.18050500   
   223       C         14.71158400     23.83170700     13.92449500   
   224       C         22.18050500      9.35841600     11.79670700   
   225       C         13.92449500     14.71158400     23.83170700   
   226       C          1.88949500     21.39341600      0.23829300   
   227       C         23.83170700     13.92449500     14.71158400   
   228       C         12.27329300     10.14550500      2.67658400   
   229       C         19.29932600     15.89101400     20.03346100   
   230       C         16.80567400      8.17898600      7.99846100   
   231       C         16.07153900      4.77067400      3.85601400   
   232       C          7.99846100     16.80567400      8.17898600   
   233       C          3.85601400     16.07153900      4.77067400   
   234       C         20.03346100     19.29932600     15.89101400   
   235       C          4.03653900      7.26432600     20.21398600   
   236       C         15.89101400     20.03346100     19.29932600   
   237       C         20.21398600      4.03653900      7.26432600   
   238       C          8.17898600      7.99846100     16.80567400   
   239       C          7.26432600     20.21398600      4.03653900   
   240       C          4.77067400      3.85601400     16.07153900   
   241       C          9.87351400      1.24682600     10.05403900   
   242       C          2.16148600     22.82317400     22.08903900   
   243       C          1.98096100     14.19648600     13.28182600   
   244       C         22.08903900      2.16148600     22.82317400   
   245       C         13.28182600      1.98096100     14.19648600   
   246       C         10.05403900      9.87351400      1.24682600   
   247       C         14.01596100     21.90851400     10.78817400   
   248       C          1.24682600     10.05403900      9.87351400   
   249       C         10.78817400     14.01596100     21.90851400   
   250       C         22.82317400     22.08903900      2.16148600   
   251       C         21.90851400     10.78817400     14.01596100   
   252       C         14.19648600     13.28182600      1.98096100   
   253       C         16.88029100     15.47701000     21.48728900   
   254       C         19.22470900      8.59299000      9.45228900   
   255       C         14.61771100      7.18970900      3.44201000   
   256       C          9.45228900     19.22470900      8.59299000   
   257       C          3.44201000     14.61771100      7.18970900   
   258       C         21.48728900     16.88029100     15.47701000   
   259       C          2.58271100      4.84529100     20.62799000   
   260       C         15.47701000     21.48728900     16.88029100   
   261       C         20.62799000      2.58271100      4.84529100   
   262       C          8.59299000      9.45228900     19.22470900   
   263       C          4.84529100     20.62799000      2.58271100   
   264       C          7.18970900      3.44201000     14.61771100   
   265       C          9.45951000     22.89779100      8.60021100   
   266       C          2.57549000      1.17220900     20.63521100   
   267       C          3.43478900     14.61049000     10.86279100   
   268       C         20.63521100      2.57549000      1.17220900   
   269       C         10.86279100      3.43478900     14.61049000   
   270       C          8.60021100      9.45951000     22.89779100   
   271       C         15.46978900     21.49451000     13.20720900   
   272       C         22.89779100      8.60021100      9.45951000   
   273       C         13.20720900     15.46978900     21.49451000   
   274       C          1.17220900     20.63521100      2.57549000   
   275       C         21.49451000     13.20720900     15.46978900   
   276       C         14.61049000     10.86279100      3.43478900   
   277       B         19.21748800     19.98050700     17.98510400   
   278       B         16.88751200      4.08949300      5.95010400   
   279       B         18.11989600      4.85251200      7.94550700   
   280       B          5.95010400     16.88751200      4.08949300   
   281       B          7.94550700     18.11989600      4.85251200   
   282       B         17.98510400     19.21748800     19.98050700   
   283       B          6.08489600      7.18248800     16.12449300   
   284       B         19.98050700     17.98510400     19.21748800   
   285       B         16.12449300      6.08489600      7.18248800   
   286       B          4.08949300      5.95010400     16.88751200   
   287       B          7.18248800     16.12449300      6.08489600   
   288       B          4.85251200      7.94550700     18.11989600   
   289       H         13.45031600     21.59801100     17.55184400   
   290       H         22.65468400      2.47198900      5.51684400   
   291       H         18.55315600     10.61968400      9.56301100   
   292       H          5.51684400     22.65468400      2.47198900   
   293       H          9.56301100     18.55315600     10.61968400   
   294       H         17.55184400     13.45031600     21.59801100   
   295       H          6.51815600      1.41531600     14.50698900   
   296       H         21.59801100     17.55184400     13.45031600   
   297       H         14.50698900      6.51815600      1.41531600   
   298       H          2.47198900      5.51684400     22.65468400   
   299       H          1.41531600     14.50698900      6.51815600   
   300       H         10.61968400      9.56301100     18.55315600   
   301       H         15.58051100     19.46781600     12.53565600   
   302       H         20.52448900      4.60218400      0.50065600   
   303       H         23.56934400      8.48948900      7.43281600   
   304       H          0.50065600     20.52448900      4.60218400   
   305       H          7.43281600     23.56934400      8.48948900   
   306       H         12.53565600     15.58051100     19.46781600   
   307       H         11.53434400      3.54551100     16.63718400   
   308       H         19.46781600     12.53565600     15.58051100   
   309       H         16.63718400     11.53434400      3.54551100   
   310       H          4.60218400      0.50065600     20.52448900   
   311       H          3.54551100     16.63718400     11.53434400   
   312       H          8.48948900      7.43281600     23.56934400   
   313       H         13.74878400     20.12733400     19.49910700   
   314       H         22.35621600      3.94266600      7.46410700   
   315       H         16.60589300     10.32121600      8.09233400   
   316       H          7.46410700     22.35621600      3.94266600   
   317       H          8.09233400     16.60589300     10.32121600   
   318       H         19.49910700     13.74878400     20.12733400   
   319       H          4.57089300      1.71378400     15.97766600   
   320       H         20.12733400     19.49910700     13.74878400   
   321       H         15.97766600      4.57089300      1.71378400   
   322       H          3.94266600      7.46410700     22.35621600   
   323       H          1.71378400     15.97766600      4.57089300   
   324       H         10.32121600      8.09233400     16.60589300   
   325       H         14.10983400     19.76628400     10.58839300   
   326       H         21.99516600      4.30371600     22.62339300   
   327       H          1.44660700      9.96016600      7.73128400   
   328       H         22.62339300     21.99516600      4.30371600   
   329       H          7.73128400      1.44660700      9.96016600   
   330       H         10.58839300     14.10983400     19.76628400   
   331       H         13.48160700      2.07483400     16.33871600   
   332       H         19.76628400     10.58839300     14.10983400   
   333       H         16.33871600     13.48160700      2.07483400   
   334       H          4.30371600     22.62339300     21.99516600   
   335       H          2.07483400     16.33871600     13.48160700   
   336       H          9.96016600      7.73128400      1.44660700   
   337       H         14.00392600     17.89845200     20.33674300   
   338       H         22.10107400      6.17154800      8.30174300   
   339       H         15.76825700     10.06607400      5.86345200   
   340       H          8.30174300     22.10107400      6.17154800   
   341       H          5.86345200     15.76825700     10.06607400   
   342       H         20.33674300     14.00392600     17.89845200   
   343       H          3.73325700      1.96892600     18.20654800   
   344       H         17.89845200     20.33674300     14.00392600   
   345       H         18.20654800      3.73325700      1.96892600   
   346       H          6.17154800      8.30174300     22.10107400   
   347       H          1.96892600     18.20654800      3.73325700   
   348       H         10.06607400      5.86345200     15.76825700   
   349       H         11.88095200     20.02142600      9.75075700   
   350       H          0.15404800      4.04857400     21.78575700   
   351       H          2.28424300     12.18904800      7.98642600   
   352       H         21.78575700      0.15404800      4.04857400   
   353       H          7.98642600      2.28424300     12.18904800   
   354       H          9.75075700     11.88095200     20.02142600   
   355       H         14.31924300     23.91595200     16.08357400   
   356       H         20.02142600      9.75075700     11.88095200   
   357       H         16.08357400     14.31924300     23.91595200   
   358       H          4.04857400     21.78575700      0.15404800   
   359       H         23.91595200     16.08357400     14.31924300   
   360       H         12.18904800      7.98642600      2.28424300   
   361      Tv         24.07000000      0.00000000      0.00000000   
   362      Tv          0.00000000     24.07000000      0.00000000   
   363      Tv          0.00000000      0.00000000     24.07000000   

                             CARTESIAN COORDINATES

   1    C       17.766067000    14.461256000    21.229740000
   2    C       18.338933000     9.608744000     9.194740000
   3    C       14.875260000     6.303933000     2.426256000
   4    C        9.194740000    18.338933000     9.608744000
   5    C        2.426256000    14.875260000     6.303933000
   6    C       21.229740000    17.766067000    14.461256000
   7    C        2.840260000     5.731067000    21.643744000
   8    C       14.461256000    21.229740000    17.766067000
   9    C       21.643744000     2.840260000     5.731067000
  10    C        9.608744000     9.194740000    18.338933000
  11    C        5.731067000    21.643744000     2.840260000
  12    C        6.303933000     2.426256000    14.875260000
  13    C        8.443756000    23.783567000     8.857760000
  14    C        3.591244000     0.286433000    20.892760000
  15    C        3.177240000    15.626244000    11.748567000
  16    C       20.892760000     3.591244000     0.286433000
  17    C       11.748567000     3.177240000    15.626244000
  18    C        8.857760000     8.443756000    23.783567000
  19    C       15.212240000    20.478756000    12.321433000
  20    C       23.783567000     8.857760000     8.443756000
  21    C       12.321433000    15.212240000    20.478756000
  22    C        0.286433000    20.892760000     3.591244000
  23    C       20.478756000    12.321433000    15.212240000
  24    C       15.626244000    11.748567000     3.177240000
  25    C       18.940683000    14.636967000    20.420988000
  26    C       17.164317000     9.433033000     8.385988000
  27    C       15.684012000     5.129317000     2.601967000
  28    C        8.385988000    17.164317000     9.433033000
  29    C        2.601967000    15.684012000     5.129317000
  30    C       20.420988000    18.940683000    14.636967000
  31    C        3.649012000     6.905683000    21.468033000
  32    C       14.636967000    20.420988000    18.940683000
  33    C       21.468033000     3.649012000     6.905683000
  34    C        9.433033000     8.385988000    17.164317000
  35    C        6.905683000    21.468033000     3.649012000
  36    C        5.129317000     2.601967000    15.684012000
  37    C        8.619467000     0.888183000     9.666512000
  38    C        3.415533000    23.181817000    21.701512000
  39    C        2.368488000    15.450533000    12.923183000
  40    C       21.701512000     3.415533000    23.181817000
  41    C       12.923183000     2.368488000    15.450533000
  42    C        9.666512000     8.619467000     0.888183000
  43    C       14.403488000    20.654467000    11.146817000
  44    C        0.888183000     9.666512000     8.619467000
  45    C       11.146817000    14.403488000    20.654467000
  46    C       23.181817000    21.701512000     3.415533000
  47    C       20.654467000    11.146817000    14.403488000
  48    C       15.450533000    12.923183000     2.368488000
  49    C       14.793422000    17.303923000    20.813329000
  50    C       21.311578000     6.766077000     8.778329000
  51    C       15.291671000     9.276578000     5.268923000
  52    C        8.778329000    21.311578000     6.766077000
  53    C        5.268923000    15.291671000     9.276578000
  54    C       20.813329000    14.793422000    17.303923000
  55    C        3.256671000     2.758422000    18.801077000
  56    C       17.303923000    20.813329000    14.793422000
  57    C       18.801077000     3.256671000     2.758422000
  58    C        6.766077000     8.778329000    21.311578000
  59    C        2.758422000    18.801077000     3.256671000
  60    C        9.276578000     5.268923000    15.291671000
  61    C       11.286423000    20.810922000     9.274171000
  62    C        0.748577000     3.259078000    21.309171000
  63    C        2.760829000    12.783577000     8.775922000
  64    C       21.309171000     0.748577000     3.259078000
  65    C        8.775922000     2.760829000    12.783577000
  66    C        9.274171000    11.286423000    20.810922000
  67    C       14.795829000    23.321423000    15.294078000
  68    C       20.810922000     9.274171000    11.286423000
  69    C       15.294078000    14.795829000    23.321423000
  70    C        3.259078000    21.309171000     0.748577000
  71    C       23.321423000    15.294078000    14.795829000
  72    C       12.783577000     8.775922000     2.760829000
  73    C       15.558848000    15.383137000    22.141993000
[...]
  293          H           0.145259        0.8547     0.85474
  294          H           0.167444        0.8326     0.83256
  295          H           0.150276        0.8497     0.84972
  296          H           0.169273        0.8307     0.83073
  297          H           0.169294        0.8307     0.83071
  298          H           0.145261        0.8547     0.85474
  299          H           0.143140        0.8569     0.85686
  300          H           0.143090        0.8569     0.85691
  301          H           0.151474        0.8485     0.84853
  302          H           0.151455        0.8485     0.84855
  303          H           0.156816        0.8432     0.84318
  304          H           0.164467        0.8355     0.83553
  305          H           0.164098        0.8359     0.83590
  306          H           0.156786        0.8432     0.84321
  307          H           0.164501        0.8355     0.83550
  308          H           0.157384        0.8426     0.84262
  309          H           0.157371        0.8426     0.84263
  310          H           0.164061        0.8359     0.83594
  311          H           0.169399        0.8306     0.83060
  312          H           0.169396        0.8306     0.83060
  313          H           0.177436        0.8226     0.82256
  314          H           0.177420        0.8226     0.82258
  315          H           0.174427        0.8256     0.82557
  316          H           0.158573        0.8414     0.84143
  317          H           0.150885        0.8491     0.84911
  318          H           0.174423        0.8256     0.82558
  319          H           0.158599        0.8414     0.84140
  320          H           0.175145        0.8249     0.82485
  321          H           0.175154        0.8248     0.82485
  322          H           0.151047        0.8490     0.84895
  323          H           0.148485        0.8515     0.85151
  324          H           0.148295        0.8517     0.85171
  325          H           0.171466        0.8285     0.82853
  326          H           0.171445        0.8286     0.82856
  327          H           0.173331        0.8267     0.82667
  328          H           0.149471        0.8505     0.85053
  329          H           0.159809        0.8402     0.84019
  330          H           0.173357        0.8266     0.82664
  331          H           0.149537        0.8505     0.85046
  332          H           0.161360        0.8386     0.83864
  333          H           0.161352        0.8386     0.83865
  334          H           0.159824        0.8402     0.84018
  335          H           0.154708        0.8453     0.84529
  336          H           0.154654        0.8453     0.84535
  337          H           0.183144        0.8169     0.81686
  338          H           0.183138        0.8169     0.81686
  339          H           0.179644        0.8204     0.82036
  340          H           0.156045        0.8440     0.84396
  341          H           0.166941        0.8331     0.83306
  342          H           0.179650        0.8204     0.82035
  343          H           0.155981        0.8440     0.84402
  344          H           0.181254        0.8187     0.81875
  345          H           0.181254        0.8187     0.81875
  346          H           0.166813        0.8332     0.83319
  347          H           0.159628        0.8404     0.84037
  348          H           0.159828        0.8402     0.84017
  349          H           0.166946        0.8331     0.83305
  350          H           0.166919        0.8331     0.83308
  351          H           0.170667        0.8293     0.82933
  352          H           0.169575        0.8304     0.83042
  353          H           0.172012        0.8280     0.82799
  354          H           0.170664        0.8293     0.82934
  355          H           0.169585        0.8304     0.83042
  356          H           0.167732        0.8323     0.83227
  357          H           0.167720        0.8323     0.83228
  358          H           0.172001        0.8280     0.82800
  359          H           0.172181        0.8278     0.82782
  360          H           0.172185        0.8278     0.82781


          ATOMIC ORBITAL ELECTRON POPULATIONS

     Atom    s        px        py        pz   
    1  C   1.09688   0.95569   1.06982   0.93869
    2  C   1.09687   0.95569   1.06981   0.93868
    3  C   1.09826   0.92952   0.95152   1.06996
    4  C   1.08712   0.98314   0.97631   1.06144
    5  C   1.08236   1.06368   1.02071   0.99382
    6  C   1.09826   0.92952   0.95153   1.06995
    7  C   1.08730   0.98179   0.97575   1.06130
    8  C   1.09922   1.07242   0.92682   0.94868
    9  C   1.09922   1.07243   0.92681   0.94866
   10  C   1.08221   1.06377   1.02170   0.99422
   11  C   1.09335   0.96047   1.05940   0.94437
   12  C   1.09332   0.96063   1.05946   0.94473
   13  C   1.08297   1.07801   0.99454   1.03055
   14  C   1.08297   1.07798   0.99456   1.03056
   15  C   1.08306   1.03055   1.08223   0.99134
   16  C   1.08922   0.97275   1.05949   0.97277
   17  C   1.08146   0.99516   1.03904   1.08125
   18  C   1.08304   1.03073   1.08227   0.99141
   19  C   1.08923   0.97272   1.05950   0.97275
   20  C   1.08936   0.97387   0.97627   1.06326
   21  C   1.08937   0.97386   0.97620   1.06323
   22  C   1.08143   0.99527   1.03929   1.08129
   23  C   1.08654   1.06866   0.97933   0.99546
   24  C   1.08654   1.06865   0.97934   0.99549
   25  C   1.08281   1.02030   1.06009   1.03129
   26  C   1.08281   1.02031   1.06010   1.03131
   27  C   1.08260   1.03556   1.02298   1.06101
   28  C   1.07606   1.05623   1.03042   1.05331
   29  C   1.07981   1.05136   1.02305   1.01075
   30  C   1.08260   1.03560   1.02299   1.06102
   31  C   1.07599   1.05711   1.03090   1.05354
   32  C   1.08347   1.06016   1.03249   1.02201
   33  C   1.08347   1.06015   1.03249   1.02202
   34  C   1.07981   1.05115   1.02269   1.01055
   35  C   1.07721   1.03565   1.06182   1.06560
   36  C   1.07727   1.03538   1.06179   1.06511
   37  C   1.08496   1.04154   0.99599   0.98480
   38  C   1.08495   1.04157   0.99601   0.98486
   39  C   1.08650   0.97418   1.03807   0.99148
   40  C   1.07915   1.02956   1.05750   1.01708
   41  C   1.08496   0.99470   0.98102   1.03562
   42  C   1.08651   0.97411   1.03803   0.99145
   43  C   1.07915   1.02954   1.05750   1.01707
   44  C   1.08155   1.00939   1.01397   1.05642
   45  C   1.08154   1.00942   1.01404   1.05645
   46  C   1.08496   0.99466   0.98095   1.03558
   47  C   1.08203   1.04910   1.00569   1.00567
   48  C   1.08203   1.04910   1.00569   1.00568
   49  C   1.08125   1.03447   1.03942   1.09546
   50  C   1.08126   1.03446   1.03938   1.09533
   51  C   1.08137   1.08949   1.03475   1.03723
   52  C   1.09564   0.92915   1.03560   0.98842
   53  C   1.09519   0.99492   0.95384   1.04235
   54  C   1.08138   1.08941   1.03476   1.03720
   55  C   1.09560   0.92905   1.03545   0.98838
   56  C   1.07924   1.04714   1.11919   1.03515
   57  C   1.07924   1.04716   1.11924   1.03513
   58  C   1.09526   0.99482   0.95336   1.04244
   59  C   1.09183   1.03433   0.99578   0.95958
   60  C   1.09179   1.03440   0.99597   0.96026
   61  C   1.07403   1.04492   1.02577   1.12347
   62  C   1.07402   1.04490   1.02580   1.12356
   63  C   1.07689   1.10061   1.04151   1.02550
   64  C   1.09473   0.92605   0.98741   1.02917
   65  C   1.07845   1.02489   1.08004   1.03060
   66  C   1.07685   1.10097   1.04162   1.02548
   67  C   1.09472   0.92615   0.98745   1.02916
   68  C   1.09104   1.03079   0.96484   0.99949
   69  C   1.09106   1.03080   0.96472   0.99946
   70  C   1.07839   1.02489   1.08054   1.03070
   71  C   1.09226   0.99393   1.02943   0.95129
   72  C   1.09227   0.99390   1.02943   0.95120
   73  C   1.06332   0.96645   1.03721   1.00056
   74  C   1.06333   0.96645   1.03711   1.00052
   75  C   1.06090   1.00519   0.96476   1.05042
   76  C   1.07628   0.94149   0.96183   0.90269
   77  C   1.07656   0.91709   0.95032   0.97077
   78  C   1.06091   1.00516   0.96476   1.05032
   79  C   1.07624   0.94145   0.96165   0.90274
   80  C   1.05933   1.06974   1.01294   0.96559
   81  C   1.05932   1.06985   1.01299   0.96557
   82  C   1.07662   0.91672   0.95019   0.97083
   83  C   1.07045   0.95932   0.94361   0.95762
   84  C   1.07044   0.95943   0.94399   0.95781
   85  C   1.05740   1.08124   0.96916   1.01759
   86  C   1.05737   1.08144   0.96923   1.01765
   87  C   1.06317   1.00583   1.04542   0.96460
   88  C   1.08301   0.93165   0.87203   0.96792
   89  C   1.06196   0.96716   1.00517   1.04841
   90  C   1.06310   1.00602   1.04593   0.96458
   91  C   1.08301   0.93167   0.87207   0.96791
   92  C   1.07975   0.96803   0.94435   0.90011
   93  C   1.07977   0.96803   0.94428   0.89997
   94  C   1.06185   0.96721   1.00548   1.04921
   95  C   1.07872   0.90823   0.96690   0.94843
   96  C   1.07873   0.90816   0.96691   0.94840
   97  C   1.06915   0.99180   0.99106   0.95865
   98  C   1.06916   0.99178   0.99106   0.95863
   99  C   1.06637   0.95522   0.98952   0.98478
  100  C   1.07344   0.96375   0.95692   0.96394
  101  C   1.07060   0.96556   0.96541   0.96680
  102  C   1.06636   0.95522   0.98957   0.98481
  103  C   1.07343   0.96374   0.95701   0.96402
  104  C   1.06929   0.98057   0.95506   0.97760
  105  C   1.06930   0.98059   0.95506   0.97760
  106  C   1.07060   0.96557   0.96541   0.96682
  107  C   1.06995   0.96063   0.96179   0.96034
  108  C   1.06996   0.96054   0.96171   0.96034
  109  C   1.06906   1.00771   1.02172   1.06954
  110  C   1.06906   1.00771   1.02172   1.06954
  111  C   1.06854   1.07960   1.01107   1.02270
  112  C   1.07169   1.01665   0.99361   1.02308
  113  C   1.07676   1.01805   0.94950   0.96851
  114  C   1.06853   1.07961   1.01106   1.02271
  115  C   1.07160   1.01901   0.99435   1.02358
  116  C   1.06882   1.02290   1.07975   1.01191
  117  C   1.06881   1.02289   1.07977   1.01193
  118  C   1.07680   1.01757   0.94770   0.96799
  119  C   1.07095   1.01249   1.04384   1.08557
  120  C   1.07101   1.01227   1.04382   1.08498
  121  C   1.06755   0.97636   0.98217   0.98345
  122  C   1.06756   0.97638   0.98217   0.98347
  123  C   1.06601   0.97887   0.97518   0.97923
  124  C   1.06560   1.01797   0.99395   0.98884
  125  C   1.06543   0.98242   0.98353   0.97386
  126  C   1.06601   0.97880   0.97514   0.97922
  127  C   1.06560   1.01798   0.99394   0.98885
  128  C   1.06596   0.98450   1.00791   0.99244
  129  C   1.06596   0.98451   1.00796   0.99246
  130  C   1.06543   0.98240   0.98343   0.97382
  131  C   1.06436   0.98765   0.98360   1.00361
  132  C   1.06436   0.98766   0.98360   1.00360
  133  C   1.08263   1.07903   0.97903   1.00915
  134  C   1.08265   1.07904   0.97899   1.00905
  135  C   1.08321   1.00153   1.07840   0.97605
  136  C   1.10800   0.83232   1.08778   0.90275
  137  C   1.09266   0.94637   0.92692   1.07748
  138  C   1.08322   1.00146   1.07841   0.97602
  139  C   1.10827   0.83067   1.08797   0.90219
  140  C   1.08055   0.98411   1.02383   1.07826
  141  C   1.08056   0.98410   1.02379   1.07823
  142  C   1.09260   0.94629   0.92730   1.07746
  143  C   1.10553   1.08689   0.91603   0.84009
  144  C   1.10530   1.08669   0.91672   0.84151
  145  C   1.06279   1.00539   0.96313   1.08161
  146  C   1.06279   1.00539   0.96315   1.08163
  147  C   1.06521   1.05922   0.99609   0.96431
  148  C   1.08419   0.92558   0.94890   0.97274
  149  C   1.07092   0.96082   1.02418   0.98768
  150  C   1.06517   1.05951   0.99620   0.96428
  151  C   1.08418   0.92570   0.94894   0.97273
  152  C   1.07765   0.97462   0.96636   0.96012
  153  C   1.07766   0.97463   0.96630   0.96009
  154  C   1.07088   0.96080   1.02450   0.98781
  155  C   1.08190   0.95298   0.97152   0.93860
  156  C   1.08192   0.95296   0.97153   0.93850
  157  C   1.05315   0.99282   1.03619   0.98990
  158  C   1.05316   0.99280   1.03605   0.98986
  159  C   1.05689   0.98738   0.99477   1.02219
  160  C   1.05600   0.97335   0.98365   0.99599
  161  C   1.05390   1.01855   0.98352   0.98570
  162  C   1.05689   0.98737   0.99479   1.02218
  163  C   1.05600   0.97334   0.98362   0.99595
  164  C   1.06010   0.99100   0.97435   0.99275
  165  C   1.06011   0.99096   0.97435   0.99273
  166  C   1.05391   1.01844   0.98347   0.98569
  167  C   1.05937   0.98515   0.98084   0.96985
  168  C   1.05936   0.98515   0.98090   0.96988
  169  C   1.14967   0.64410   0.98298   1.00611
  170  C   1.14967   0.64412   0.98297   1.00611
  171  C   1.10891   0.97917   0.83747   1.03226
  172  C   1.15118   1.00653   0.63882   0.98393
  173  C   1.14801   0.98881   1.00556   0.65690
  174  C   1.10988   0.97828   0.83207   1.03250
  175  C   1.15117   1.00654   0.63882   0.98394
  176  C   1.16236   0.97637   0.95875   0.53758
  177  C   1.16235   0.97534   0.95917   0.53752
  178  C   1.14802   0.98879   1.00556   0.65684
  179  C   1.12149   0.77152   0.95567   1.00172
  180  C   1.12054   0.77695   0.95648   1.00218
  181  C   1.07869   0.97058   0.97412   0.91783
  182  C   1.07869   0.97058   0.97411   0.91781
  183  C   1.08006   0.90385   0.96796   0.97197
  184  C   1.06839   0.92982   0.97242   0.95124
  185  C   1.05979   0.96938   1.02904   0.98600
  186  C   1.08005   0.90388   0.96797   0.97195
  187  C   1.06870   0.92688   0.97211   0.95087
  188  C   1.08041   0.97579   0.91312   0.96840
  189  C   1.08043   0.97579   0.91301   0.96838
  190  C   1.05954   0.96947   1.03088   0.98616
  191  C   1.07854   0.96713   0.94995   0.86234
  192  C   1.07847   0.96729   0.95024   0.86348
  193  C   1.06314   0.99542   0.97335   1.02714
  194  C   1.06314   0.99541   0.97336   1.02714
  195  C   1.06312   1.02398   0.99398   0.97419
  196  C   1.05935   0.99044   0.96569   0.97484
  197  C   1.06328   0.97334   1.02092   0.99315
  198  C   1.06313   1.02406   0.99405   0.97418
  199  C   1.05936   0.99043   0.96570   0.97483
  200  C   1.05963   0.97559   0.99685   0.96952
  201  C   1.05963   0.97559   0.99681   0.96948
  202  C   1.06329   0.97334   1.02102   0.99322
  203  C   1.06029   0.97176   0.97555   0.99742
  204  C   1.06029   0.97175   0.97555   0.99744
  205  C   1.08434   0.96015   0.95325   0.85938
  206  C   1.08433   0.96015   0.95328   0.85951
  207  C   1.08302   0.87044   0.95908   0.95590
  208  C   1.05432   1.10811   0.94693   0.99693
  209  C   1.06909   0.97649   0.98648   0.94312
  210  C   1.08302   0.87048   0.95907   0.95591
  211  C   1.05417   1.10972   0.94713   0.99732
  212  C   1.08660   0.94986   0.83945   0.96002
  213  C   1.08660   0.94986   0.83950   0.96004
  214  C   1.06901   0.97637   0.98661   0.94292
  215  C   1.06096   0.95306   0.99889   1.07252
  216  C   1.06120   0.95306   0.99859   1.07065
  217  C   1.07400   0.93093   0.97061   0.89180
  218  C   1.07400   0.93093   0.97059   0.89181
  219  C   1.07263   0.90962   0.93690   0.96991
  220  C   1.05854   1.06523   0.97620   0.96332
  221  C   1.06888   0.96845   0.94513   0.94399
  222  C   1.07266   0.90928   0.93681   0.96992
  223  C   1.05856   1.06510   0.97616   0.96334
  224  C   1.06250   0.96393   1.02182   0.96681
  225  C   1.06249   0.96393   1.02191   0.96684
  226  C   1.06891   0.96844   0.94475   0.94389
  227  C   1.06005   0.97201   0.96282   1.04486
  228  C   1.06004   0.97204   0.96282   1.04498
  229  C   1.08305   0.93410   0.96091   0.90643
  230  C   1.08306   0.93409   0.96091   0.90642
  231  C   1.08350   0.89882   0.92813   0.95949
  232  C   1.08312   0.93464   0.94720   0.96976
  233  C   1.08043   0.96944   0.96353   0.97417
  234  C   1.08351   0.89877   0.92809   0.95949
  235  C   1.08335   0.93339   0.94638   0.96942
  236  C   1.08390   0.96134   0.90056   0.93029
  237  C   1.08389   0.96135   0.90060   0.93032
  238  C   1.08023   0.96977   0.96440   0.97461
  239  C   1.09245   0.93297   0.95560   0.90113
  240  C   1.09242   0.93333   0.95560   0.90149
  241  C   1.06594   0.97583   0.98740   0.98638
  242  C   1.06595   0.97579   0.98734   0.98630
  243  C   1.06448   1.00455   0.98497   0.99934
  244  C   1.07730   0.92897   0.96229   0.94173
  245  C   1.06462   1.00069   1.00711   0.98569
  246  C   1.06446   1.00469   0.98500   0.99945
  247  C   1.07730   0.92897   0.96229   0.94173
  248  C   1.07502   0.95091   0.94044   0.96576
  249  C   1.07503   0.95081   0.94032   0.96571
  250  C   1.06459   1.00081   1.00727   0.98572
  251  C   1.07212   0.97586   0.96992   0.96647
  252  C   1.07212   0.97586   0.96993   0.96648
  253  C   1.06403   0.98849   0.97718   1.02092
  254  C   1.06403   0.98849   0.97720   1.02097
  255  C   1.06376   1.02302   0.98955   0.97640
  256  C   1.06311   1.04576   0.97631   0.99934
  257  C   1.06238   0.99243   1.01717   0.96351
  258  C   1.06375   1.02304   0.98955   0.97642
  259  C   1.06305   1.04686   0.97678   0.99948
  260  C   1.06488   0.97265   1.01384   0.98960
  261  C   1.06488   0.97263   1.01382   0.98961
  262  C   1.06244   0.99241   1.01648   0.96318
  263  C   1.06005   0.98809   0.99647   1.06746
  264  C   1.06005   0.98795   0.99634   1.06705
  265  C   1.06738   0.95856   0.96427   0.95690
  266  C   1.06736   0.95857   0.96425   0.95694
  267  C   1.07007   0.95082   0.96171   0.96398
  268  C   1.05847   1.05684   0.99599   0.97766
  269  C   1.07017   0.96098   0.94828   0.96229
  270  C   1.07009   0.95057   0.96162   0.96394
  271  C   1.05847   1.05683   0.99597   0.97768
  272  C   1.05980   0.97593   1.04187   0.99160
  273  C   1.05978   0.97596   1.04200   0.99163
  274  C   1.07019   0.96089   0.94796   0.96218
  275  C   1.06345   0.98877   0.97016   1.01748
  276  C   1.06345   0.98878   0.97015   1.01749
  277  B   0.63361   0.82589   0.68890   0.93962
  278  B   0.63362   0.82586   0.68889   0.93964
  279  B   0.63311   0.93956   0.82919   0.69133
  280  B   0.60478   0.92382   0.90174   0.87434
  281  B   0.55577   1.04118   0.93920   1.01982
  282  B   0.63311   0.93956   0.82917   0.69131
  283  B   0.60660   0.92384   0.89908   0.86696
  284  B   0.63277   0.69501   0.93712   0.82645
  285  B   0.63278   0.69497   0.93714   0.82643
  286  B   0.55487   1.04578   0.93884   1.02060
  287  B   0.66108   0.85783   0.61681   0.94019
  288  B   0.66016   0.85973   0.61959   0.94059
  289  H   0.82551
  290  H   0.82550
  291  H   0.83257
  292  H   0.84977
  293  H   0.85474
  294  H   0.83256
  295  H   0.84972
  296  H   0.83073
  297  H   0.83071
  298  H   0.85474
  299  H   0.85686
  300  H   0.85691
  301  H   0.84853
  302  H   0.84855
  303  H   0.84318
  304  H   0.83553
  305  H   0.83590
  306  H   0.84321
  307  H   0.83550
  308  H   0.84262
  309  H   0.84263
  310  H   0.83594
  311  H   0.83060
  312  H   0.83060
  313  H   0.82256
  314  H   0.82258
  315  H   0.82557
  316  H   0.84143
  317  H   0.84911
  318  H   0.82558
  319  H   0.84140
  320  H   0.82485
  321  H   0.82485
  322  H   0.84895
  323  H   0.85151
  324  H   0.85171
  325  H   0.82853
  326  H   0.82856
  327  H   0.82667
  328  H   0.85053
  329  H   0.84019
  330  H   0.82664
  331  H   0.85046
  332  H   0.83864
  333  H   0.83865
  334  H   0.84018
  335  H   0.84529
  336  H   0.84535
  337  H   0.81686
  338  H   0.81686
  339  H   0.82036
  340  H   0.84396
  341  H   0.83306
  342  H   0.82035
  343  H   0.84402
  344  H   0.81875
  345  H   0.81875
  346  H   0.83319
  347  H   0.84037
  348  H   0.84017
  349  H   0.83305
  350  H   0.83308
  351  H   0.82933
  352  H   0.83042
  353  H   0.82799
  354  H   0.82934
  355  H   0.83042
  356  H   0.83227
  357  H   0.83228
  358  H   0.82800
  359  H   0.82782
  360  H   0.82781

 **********************
 *                    *
 * JOB ENDED NORMALLY *
 *                    *
 **********************



 TOTAL JOB TIME:           111.02 SECONDS

 == MOPAC DONE ==
