 *******************************************************************************
 **                                                                           **
 **                              MOPAC v22.1.0                                **
 **                                                                           **
 *******************************************************************************
 **          Digital Object Identifier (DOI): 10.5281/zenodo.6511958          **
 **    Visit the DOI location for information on how to cite this program.    **
 *******************************************************************************

                              PM7 CALCULATION RESULTS

 *******************************************************************************
 *  CALCULATION DONE:                                Wed Jan 31 09:06:26 2024  *
 *  PM7        - The PM7 Hamiltonian to be used
 *  NOOPT      - DO NOT OPTIMIZE ANY COORDINATES
 *
 *
 *
 *                 CHARGE ON SYSTEM = 0
 *
 *
 *
 *  T=         - A TIME OF 172800.0 SECONDS REQUESTED
 *  DUMP=N     - RESTART FILE WRITTEN EVERY 7200.0 SECONDS REQUESTED
 *******************************************************************************
PM7 CHARGE=0 NOOPT


   ATOM   CHEMICAL          X               Y               Z
  NUMBER   SYMBOL      (ANGSTROMS)     (ANGSTROMS)     (ANGSTROMS)

     1       N         16.88029100     15.47701000     21.48728900   
     2       N          2.58271100      4.84529100     20.62799000   
     3       N          3.43478900     14.61049000     10.86279100   
     4       N         21.48728900     16.88029100     15.47701000   
     5       N         20.62799000      2.58271100      4.84529100   
     6       N          2.57549000      1.17220900     20.63521100   
     7       N         15.47701000     21.48728900     16.88029100   
     8       N          4.84529100     20.62799000      2.58271100   
     9       N         14.61049000     10.86279100      3.43478900   
    10       N          7.18970900      3.44201000     14.61771100   
    11       N         21.49451000     13.20720900     15.46978900   
    12       N         20.63521100      2.57549000      1.17220900   
    13       N         13.20720900     15.46978900     21.49451000   
    14       N         15.46978900     21.49451000     13.20720900   
    15       N          9.45951000     22.89779100      8.60021100   
    16       N         19.22470900      8.59299000      9.45228900   
    17       N          8.59299000      9.45228900     19.22470900   
    18       N         14.61771100      7.18970900      3.44201000   
    19       N          3.44201000     14.61771100      7.18970900   
    20       N         22.89779100      8.60021100      9.45951000   
    21       N          8.60021100      9.45951000     22.89779100   
    22       N         10.86279100      3.43478900     14.61049000   
    23       N          1.17220900     20.63521100      2.57549000   
    24       N          9.45228900     19.22470900      8.59299000   
    25       C         17.76606700     14.46125600     21.22974000   
    26       C          2.84026000      5.73106700     21.64374400   
    27       C          3.17724000     15.62624400     11.74856700   
    28       C         21.22974000     17.76606700     14.46125600   
    29       C         21.64374400      2.84026000      5.73106700   
    30       C          3.59124400      0.28643300     20.89276000   
    31       C         14.46125600     21.22974000     17.76606700   
    32       C          5.73106700     21.64374400      2.84026000   
    33       C         15.62624400     11.74856700      3.17724000   
    34       C          6.30393300      2.42625600     14.87526000   
    35       C         20.47875600     12.32143300     15.21224000   
    36       C         20.89276000      3.59124400      0.28643300   
    37       C         12.32143300     15.21224000     20.47875600   
    38       C         15.21224000     20.47875600     12.32143300   
    39       C          8.44375600     23.78356700      8.85776000   
    40       C         18.33893300      9.60874400      9.19474000   
    41       C          9.60874400      9.19474000     18.33893300   
    42       C         14.87526000      6.30393300      2.42625600   
    43       C          2.42625600     14.87526000      6.30393300   
    44       C         23.78356700      8.85776000      8.44375600   
    45       C          8.85776000      8.44375600     23.78356700   
    46       C         11.74856700      3.17724000     15.62624400   
    47       C          0.28643300     20.89276000      3.59124400   
    48       C          9.19474000     18.33893300      9.60874400   
    49       C         18.94068300     14.63696700     20.42098800   
    50       C          3.64901200      6.90568300     21.46803300   
    51       C          2.36848800     15.45053300     12.92318300   
    52       C         20.42098800     18.94068300     14.63696700   
    53       C         21.46803300      3.64901200      6.90568300   
    54       C          3.41553300     23.18181700     21.70151200   
    55       C         14.63696700     20.42098800     18.94068300   
    56       C          6.90568300     21.46803300      3.64901200   
    57       C         15.45053300     12.92318300      2.36848800   
    58       C          5.12931700      2.60196700     15.68401200   
    59       C         20.65446700     11.14681700     14.40348800   
    60       C         21.70151200      3.41553300     23.18181700   
    61       C         11.14681700     14.40348800     20.65446700   
    62       C         14.40348800     20.65446700     11.14681700   
    63       C          8.61946700      0.88818300      9.66651200   
    64       C         17.16431700      9.43303300      8.38598800   
    65       C          9.43303300      8.38598800     17.16431700   
    66       C         15.68401200      5.12931700      2.60196700   
    67       C          2.60196700     15.68401200      5.12931700   
    68       C          0.88818300      9.66651200      8.61946700   
    69       C          9.66651200      8.61946700      0.88818300   
    70       C         12.92318300      2.36848800     15.45053300   
    71       C         23.18181700     21.70151200      3.41553300   
    72       C          8.38598800     17.16431700      9.43303300   
    73       C         15.55884800     15.38313700     22.14199300   
    74       C          1.92800700      3.52384800     20.72186300   
    75       C          4.08949300     14.70436300      9.54134800   
    76       C         22.14199300     15.55884800     15.38313700   
    77       C         20.72186300      1.92800700      3.52384800   
    78       C          2.66936300      2.49365200     19.98050700   
    79       C         15.38313700     22.14199300     15.55884800   
    80       C          3.52384800     20.72186300      1.92800700   
    81       C         14.70436300      9.54134800      4.08949300   
    82       C          8.51115200      3.34813700     13.96300700   
    83       C         21.40063700     14.52865200     16.12449300   
    84       C         19.98050700      2.66936300      2.49365200   
    85       C         14.52865200     16.12449300     21.40063700   
    86       C         16.12449300     21.40063700     14.52865200   
    87       C          9.36563700     21.57634800      7.94550700   
    88       C         20.54615200      8.68686300     10.10699300   
    89       C          8.68686300     10.10699300     20.54615200   
    90       C         13.96300700      8.51115200      3.34813700   
    91       C          3.34813700     13.96300700      8.51115200   
    92       C         21.57634800      7.94550700      9.36563700   
    93       C          7.94550700      9.36563700     21.57634800   
    94       C          9.54134800      4.08949300     14.70436300   
    95       C          2.49365200     19.98050700      2.66936300   
    96       C         10.10699300     20.54615200      8.68686300   
    97       C         19.21748800     19.98050700     17.98510400   
    98       C          6.08489600      7.18248800     16.12449300   
    99       C         24.00260400     10.10699300     13.19998800   
   100       C         17.98510400     19.21748800     19.98050700   
   101       C         16.12449300      6.08489600      7.18248800   
   102       C         22.14199300     22.90501200      0.06739600   
   103       C         19.98050700     17.98510400     19.21748800   
   104       C          7.18248800     16.12449300      6.08489600   
   105       C         10.10699300     13.19998800     24.00260400   
   106       C          4.85251200      7.94550700     18.11989600   
   107       C          1.92800700     10.87001200     11.96760400   
   108       C          0.06739600     22.14199300     22.90501200   
   109       C         10.87001200     11.96760400      1.92800700   
   110       C         11.96760400      1.92800700     10.87001200   
   111       C         13.96300700      1.16498800     12.10239600   
   112       C         16.88751200      4.08949300      5.95010400   
   113       C          4.08949300      5.95010400     16.88751200   
   114       C         18.11989600      4.85251200      7.94550700   
   115       C          7.94550700     18.11989600      4.85251200   
   116       C          1.16498800     12.10239600     13.96300700   
   117       C         12.10239600     13.96300700      1.16498800   
   118       C         13.19998800     24.00260400     10.10699300   
   119       C         22.90501200      0.06739600     22.14199300   
   120       C          5.95010400     16.88751200      4.08949300   
   121       C         18.45687600     16.94528000     20.56300100   
   122       C          3.50699900      6.42187600     19.15972000   
   123       C          2.51050100     13.14222000     12.43937600   
   124       C         20.56300100     18.45687600     16.94528000   
   125       C         19.15972000      3.50699900      6.42187600   
   126       C          1.10722000     23.66562400     21.55949900   
   127       C         16.94528000     20.56300100     18.45687600   
   128       C          6.42187600     19.15972000      3.50699900   
   129       C         13.14222000     12.43937600      2.51050100   
   130       C          5.61312400      4.91028000     15.54199900   
   131       C         22.96278000     11.63062400     14.54550100   
   132       C         21.55949900      1.10722000     23.66562400   
   133       C         11.63062400     14.54550100     22.96278000   
   134       C         14.54550100     22.96278000     11.63062400   
   135       C         10.92778000      0.40437600      9.52449900   
   136       C         17.64812400      7.12472000      8.52800100   
   137       C          7.12472000      8.52800100     17.64812400   
   138       C         15.54199900      5.61312400      4.91028000   
   139       C          4.91028000     15.54199900      5.61312400   
   140       C          0.40437600      9.52449900     10.92778000   
   141       C          9.52449900     10.92778000      0.40437600   
   142       C         12.43937600      2.51050100     13.14222000   
   143       C         23.66562400     21.55949900      1.10722000   
   144       C          8.52800100     17.64812400      7.12472000   
   145       C         16.54812500     19.02011400     20.18991600   
   146       C          3.88008400      4.51312500     17.08488600   
   147       C          2.13741600     11.06738600     10.53062500   
   148       C         20.18991600     16.54812500     19.02011400   
   149       C         17.08488600      3.88008400      4.51312500   
   150       C         23.10238600      1.50437500     21.93258400   
   151       C         19.02011400     20.18991600     16.54812500   
   152       C          4.51312500     17.08488600      3.88008400   
   153       C         11.06738600     10.53062500      2.13741600   
   154       C          7.52187500      6.98511400     15.91508400   
   155       C          0.96761400     13.53937500     14.17241600   
   156       C         21.93258400     23.10238600      1.50437500   
   157       C         13.53937500     14.17241600      0.96761400   
   158       C         14.17241600      0.96761400     13.53937500   
   159       C         13.00261400     22.56562500      9.89758400   
   160       C         19.55687500      5.04988600      8.15491600   
   161       C          5.04988600      8.15491600     19.55687500   
   162       C         15.91508400      7.52187500      6.98511400   
   163       C          6.98511400     15.91508400      7.52187500   
   164       C         22.56562500      9.89758400     13.00261400   
   165       C          9.89758400     13.00261400     22.56562500   
   166       C         10.53062500      2.13741600     11.06738600   
   167       C          1.50437500     21.93258400     23.10238600   
   168       C          8.15491600     19.55687500      5.04988600   
   169       C         23.22514300     21.99035200     23.90873100   
   170       C          0.16126900     11.19014300     14.11464800   
   171       C          5.85623100      8.09714800     17.20764300   
   172       C         23.90873100     23.22514300     21.99035200   
   173       C         14.11464800      0.16126900     11.19014300   
   174       C         20.13214800     18.89735700     18.21376900   
   175       C         21.99035200     23.90873100     23.22514300   
   176       C         11.19014300     14.11464800      0.16126900   
   177       C          8.09714800     17.20764300      5.85623100   
   178       C          0.84485700      9.95535200     12.19626900   
   179       C          3.93785200      6.86235700     17.89123100   
   180       C         18.21376900     20.13214800     18.89735700   
   181       C          6.86235700     17.89123100      3.93785200   
   182       C         17.89123100      3.93785200      6.86235700   
   183       C         15.97285200      5.17264300      6.17876900   
   184       C         12.87985700      2.07964800     11.87373100   
   185       C          2.07964800     11.87373100     12.87985700   
   186       C         12.19626900      0.84485700      9.95535200   
   187       C          9.95535200     12.19626900      0.84485700   
   188       C          5.17264300      6.17876900     15.97285200   
   189       C          6.17876900     15.97285200      5.17264300   
   190       C         17.20764300      5.85623100      8.09714800   
   191       C         18.89735700     18.21376900     20.13214800   
   192       C         11.87373100     12.87985700      2.07964800   
   193       C         17.16672400     16.79123200     21.00829600   
   194       C          3.06170400      5.13172400     19.31376800   
   195       C          2.95579600     13.29626800     11.14922400   
   196       C         21.00829600     17.16672400     16.79123200   
   197       C         19.31376800      3.06170400      5.13172400   
   198       C          1.26126800      0.88577600     21.11420400   
   199       C         16.79123200     21.00829600     17.16672400   
   200       C          5.13172400     19.31376800      3.06170400   
   201       C         13.29626800     11.14922400      2.95579600   
   202       C          6.90327600      4.75623200     15.09670400   
   203       C         22.80873200     12.92077600     14.99079600   
   204       C         21.11420400      1.26126800      0.88577600   
   205       C         12.92077600     14.99079600     22.80873200   
   206       C         14.99079600     22.80873200     12.92077600   
   207       C         10.77373200     23.18422400      9.07920400   
   208       C         18.93827600      7.27876800      8.97329600   
   209       C          7.27876800      8.97329600     18.93827600   
   210       C         15.09670400      6.90327600      4.75623200   
   211       C          4.75623200     15.09670400      6.90327600   
   212       C         23.18422400      9.07920400     10.77373200   
   213       C          9.07920400     10.77373200     23.18422400   
   214       C         11.14922400      2.95579600     13.29626800   
   215       C          0.88577600     21.11420400      1.26126800   
   216       C          8.97329600     18.93827600      7.27876800   
   217       C         16.16300500     17.81420700     20.72908400   
   218       C          3.34091600      4.12800500     18.29079300   
   219       C          2.67658400     12.27329300     10.14550500   
   220       C         20.72908400     16.16300500     17.81420700   
   221       C         18.29079300      3.34091600      4.12800500   
   222       C          0.23829300      1.88949500     21.39341600   
   223       C         17.81420700     20.72908400     16.16300500   
   224       C          4.12800500     18.29079300      3.34091600   
   225       C         12.27329300     10.14550500      2.67658400   
   226       C          7.90699500      5.77920700     15.37591600   
   227       C         23.83170700     13.92449500     14.71158400   
   228       C         21.39341600      0.23829300      1.88949500   
   229       C         13.92449500     14.71158400     23.83170700   
   230       C         14.71158400     23.83170700     13.92449500   
   231       C         11.79670700     22.18050500      9.35841600   
   232       C         19.94199500      6.25579300      8.69408400   
   233       C          6.25579300      8.69408400     19.94199500   
   234       C         15.37591600      7.90699500      5.77920700   
   235       C          5.77920700     15.37591600      7.90699500   
   236       C         22.18050500      9.35841600     11.79670700   
   237       C          9.35841600     11.79670700     22.18050500   
   238       C         10.14550500      2.67658400     12.27329300   
   239       C          1.88949500     21.39341600      0.23829300   
   240       C          8.69408400     19.94199500      6.25579300   
   241       C         19.29932600     15.89101400     20.03346100   
   242       C          4.03653900      7.26432600     20.21398600   
   243       C          1.98096100     14.19648600     13.28182600   
   244       C         20.03346100     19.29932600     15.89101400   
   245       C         20.21398600      4.03653900      7.26432600   
   246       C          2.16148600     22.82317400     22.08903900   
   247       C         15.89101400     20.03346100     19.29932600   
   248       C          7.26432600     20.21398600      4.03653900   
   249       C         14.19648600     13.28182600      1.98096100   
   250       C          4.77067400      3.85601400     16.07153900   
   251       C         21.90851400     10.78817400     14.01596100   
   252       C         22.08903900      2.16148600     22.82317400   
   253       C         10.78817400     14.01596100     21.90851400   
   254       C         14.01596100     21.90851400     10.78817400   
   255       C          9.87351400      1.24682600     10.05403900   
   256       C         16.80567400      8.17898600      7.99846100   
   257       C          8.17898600      7.99846100     16.80567400   
   258       C         16.07153900      4.77067400      3.85601400   
   259       C          3.85601400     16.07153900      4.77067400   
   260       C          1.24682600     10.05403900      9.87351400   
   261       C         10.05403900      9.87351400      1.24682600   
   262       C         13.28182600      1.98096100     14.19648600   
   263       C         22.82317400     22.08903900      2.16148600   
   264       C          7.99846100     16.80567400      8.17898600   
   265       C         14.79342200     17.30392300     20.81332900   
   266       C          3.25667100      2.75842200     18.80107700   
   267       C          2.76082900     12.78357700      8.77592200   
   268       C         20.81332900     14.79342200     17.30392300   
   269       C         18.80107700      3.25667100      2.75842200   
   270       C          0.74857700      3.25907800     21.30917100   
   271       C         17.30392300     20.81332900     14.79342200   
   272       C          2.75842200     18.80107700      3.25667100   
   273       C         12.78357700      8.77592200      2.76082900   
   274       C          9.27657800      5.26892300     15.29167100   
   275       C         23.32142300     15.29407800     14.79582900   
   276       C         21.30917100      0.74857700      3.25907800   
   277       C         15.29407800     14.79582900     23.32142300   
   278       C         14.79582900     23.32142300     15.29407800   
   279       C         11.28642300     20.81092200      9.27417100   
   280       C         21.31157800      6.76607700      8.77832900   
   281       C          6.76607700      8.77832900     21.31157800   
   282       C         15.29167100      9.27657800      5.26892300   
   283       C          5.26892300     15.29167100      9.27657800   
   284       C         20.81092200      9.27417100     11.28642300   
   285       C          9.27417100     11.28642300     20.81092200   
   286       C          8.77592200      2.76082900     12.78357700   
   287       C          3.25907800     21.30917100      0.74857700   
   288       C          8.77832900     21.31157800      6.76607700   
   289       H         13.45031600     21.59801100     17.55184400   
   290       H          6.51815600      1.41531600     14.50698900   
   291       H         23.56934400      8.48948900      7.43281600   
   292       H         17.55184400     13.45031600     21.59801100   
   293       H         14.50698900      6.51815600      1.41531600   
   294       H         20.52448900      4.60218400      0.50065600   
   295       H         21.59801100     17.55184400     13.45031600   
   296       H          1.41531600     14.50698900      6.51815600   
   297       H          8.48948900      7.43281600     23.56934400   
   298       H         10.61968400      9.56301100     18.55315600   
   299       H          3.54551100     16.63718400     11.53434400   
   300       H          0.50065600     20.52448900      4.60218400   
   301       H         16.63718400     11.53434400      3.54551100   
   302       H         11.53434400      3.54551100     16.63718400   
   303       H         15.58051100     19.46781600     12.53565600   
   304       H         22.65468400      2.47198900      5.51684400   
   305       H          2.47198900      5.51684400     22.65468400   
   306       H         18.55315600     10.61968400      9.56301100   
   307       H          9.56301100     18.55315600     10.61968400   
   308       H         19.46781600     12.53565600     15.58051100   
   309       H         12.53565600     15.58051100     19.46781600   
   310       H          7.43281600     23.56934400      8.48948900   
   311       H          4.60218400      0.50065600     20.52448900   
   312       H          5.51684400     22.65468400      2.47198900   
   313       H         13.74878400     20.12733400     19.49910700   
   314       H          4.57089300      1.71378400     15.97766600   
   315       H          1.44660700      9.96016600      7.73128400   
   316       H         19.49910700     13.74878400     20.12733400   
   317       H         15.97766600      4.57089300      1.71378400   
   318       H         21.99516600      4.30371600     22.62339300   
   319       H         20.12733400     19.49910700     13.74878400   
   320       H          1.71378400     15.97766600      4.57089300   
   321       H          9.96016600      7.73128400      1.44660700   
   322       H         10.32121600      8.09233400     16.60589300   
   323       H          2.07483400     16.33871600     13.48160700   
   324       H         22.62339300     21.99516600      4.30371600   
   325       H         16.33871600     13.48160700      2.07483400   
   326       H         13.48160700      2.07483400     16.33871600   
   327       H         14.10983400     19.76628400     10.58839300   
   328       H         22.35621600      3.94266600      7.46410700   
   329       H          3.94266600      7.46410700     22.35621600   
   330       H         16.60589300     10.32121600      8.09233400   
   331       H          8.09233400     16.60589300     10.32121600   
   332       H         19.76628400     10.58839300     14.10983400   
   333       H         10.58839300     14.10983400     19.76628400   
   334       H          7.73128400      1.44660700      9.96016600   
   335       H          4.30371600     22.62339300     21.99516600   
   336       H          7.46410700     22.35621600      3.94266600   
   337       H         14.00392600     17.89845200     20.33674300   
   338       H          3.73325700      1.96892600     18.20654800   
   339       H          2.28424300     12.18904800      7.98642600   
   340       H         20.33674300     14.00392600     17.89845200   
   341       H         18.20654800      3.73325700      1.96892600   
   342       H          0.15404800      4.04857400     21.78575700   
   343       H         17.89845200     20.33674300     14.00392600   
   344       H          1.96892600     18.20654800      3.73325700   
   345       H         12.18904800      7.98642600      2.28424300   
   346       H         10.06607400      5.86345200     15.76825700   
   347       H         23.91595200     16.08357400     14.31924300   
   348       H         21.78575700      0.15404800      4.04857400   
   349       H         16.08357400     14.31924300     23.91595200   
   350       H         14.31924300     23.91595200     16.08357400   
   351       H         11.88095200     20.02142600      9.75075700   
   352       H         22.10107400      6.17154800      8.30174300   
   353       H          6.17154800      8.30174300     22.10107400   
   354       H         15.76825700     10.06607400      5.86345200   
   355       H          5.86345200     15.76825700     10.06607400   
   356       H         20.02142600      9.75075700     11.88095200   
   357       H          9.75075700     11.88095200     20.02142600   
   358       H          7.98642600      2.28424300     12.18904800   
   359       H          4.04857400     21.78575700      0.15404800   
   360       H          8.30174300     22.10107400      6.17154800   
   361      Tv         24.07000000      0.00000000      0.00000000   
   362      Tv          0.00000000     24.07000000      0.00000000   
   363      Tv          0.00000000      0.00000000     24.07000000   


                   THE SYSTEM IS A SOLID


                UNIT CELL TRANSLATION VECTORS

              X                Y              Z
    T1 =    24.0700000      0.0000000      0.0000000
    T2 =     0.0000000     24.0700000      0.0000000
    T3 =     0.0000000      0.0000000     24.0700000


          CARTESIAN COORDINATES 

    NO.       ATOM           X           Y           Z

     1         N         16.8803     15.4770     21.4873
     2         N          2.5827      4.8453     20.6280
     3         N          3.4348     14.6105     10.8628
     4         N         21.4873     16.8803     15.4770
     5         N         20.6280      2.5827      4.8453
     6         N          2.5755      1.1722     20.6352
     7         N         15.4770     21.4873     16.8803
     8         N          4.8453     20.6280      2.5827
     9         N         14.6105     10.8628      3.4348
    10         N          7.1897      3.4420     14.6177
    11         N         21.4945     13.2072     15.4698
    12         N         20.6352      2.5755      1.1722
    13         N         13.2072     15.4698     21.4945
    14         N         15.4698     21.4945     13.2072
    15         N          9.4595     22.8978      8.6002
    16         N         19.2247      8.5930      9.4523
    17         N          8.5930      9.4523     19.2247
    18         N         14.6177      7.1897      3.4420
    19         N          3.4420     14.6177      7.1897
    20         N         22.8978      8.6002      9.4595
    21         N          8.6002      9.4595     22.8978
    22         N         10.8628      3.4348     14.6105
    23         N          1.1722     20.6352      2.5755
    24         N          9.4523     19.2247      8.5930
    25         C         17.7661     14.4613     21.2297
    26         C          2.8403      5.7311     21.6437
    27         C          3.1772     15.6262     11.7486
    28         C         21.2297     17.7661     14.4613
    29         C         21.6437      2.8403      5.7311
    30         C          3.5912      0.2864     20.8928
    31         C         14.4613     21.2297     17.7661
    32         C          5.7311     21.6437      2.8403
    33         C         15.6262     11.7486      3.1772
    34         C          6.3039      2.4263     14.8753
    35         C         20.4788     12.3214     15.2122
    36         C         20.8928      3.5912      0.2864
    37         C         12.3214     15.2122     20.4788
    38         C         15.2122     20.4788     12.3214
    39         C          8.4438     23.7836      8.8578
    40         C         18.3389      9.6087      9.1947
    41         C          9.6087      9.1947     18.3389
    42         C         14.8753      6.3039      2.4263
    43         C          2.4263     14.8753      6.3039
    44         C         23.7836      8.8578      8.4438
    45         C          8.8578      8.4438     23.7836
    46         C         11.7486      3.1772     15.6262
    47         C          0.2864     20.8928      3.5912
    48         C          9.1947     18.3389      9.6087
    49         C         18.9407     14.6370     20.4210
    50         C          3.6490      6.9057     21.4680
    51         C          2.3685     15.4505     12.9232
    52         C         20.4210     18.9407     14.6370
    53         C         21.4680      3.6490      6.9057
    54         C          3.4155     23.1818     21.7015
    55         C         14.6370     20.4210     18.9407
    56         C          6.9057     21.4680      3.6490
    57         C         15.4505     12.9232      2.3685
    58         C          5.1293      2.6020     15.6840
    59         C         20.6545     11.1468     14.4035
    60         C         21.7015      3.4155     23.1818
    61         C         11.1468     14.4035     20.6545
    62         C         14.4035     20.6545     11.1468
    63         C          8.6195      0.8882      9.6665
    64         C         17.1643      9.4330      8.3860
    65         C          9.4330      8.3860     17.1643
    66         C         15.6840      5.1293      2.6020
    67         C          2.6020     15.6840      5.1293
    68         C          0.8882      9.6665      8.6195
    69         C          9.6665      8.6195      0.8882
    70         C         12.9232      2.3685     15.4505
    71         C         23.1818     21.7015      3.4155
    72         C          8.3860     17.1643      9.4330
    73         C         15.5588     15.3831     22.1420
    74         C          1.9280      3.5238     20.7219
    75         C          4.0895     14.7044      9.5413
    76         C         22.1420     15.5588     15.3831
    77         C         20.7219      1.9280      3.5238
    78         C          2.6694      2.4937     19.9805
    79         C         15.3831     22.1420     15.5588
    80         C          3.5238     20.7219      1.9280
    81         C         14.7044      9.5413      4.0895
    82         C          8.5112      3.3481     13.9630
    83         C         21.4006     14.5287     16.1245
    84         C         19.9805      2.6694      2.4937
    85         C         14.5287     16.1245     21.4006
    86         C         16.1245     21.4006     14.5287
    87         C          9.3656     21.5763      7.9455
    88         C         20.5462      8.6869     10.1070
    89         C          8.6869     10.1070     20.5462
    90         C         13.9630      8.5112      3.3481
    91         C          3.3481     13.9630      8.5112
    92         C         21.5763      7.9455      9.3656
    93         C          7.9455      9.3656     21.5763
    94         C          9.5413      4.0895     14.7044
    95         C          2.4937     19.9805      2.6694
    96         C         10.1070     20.5462      8.6869
    97         C         19.2175     19.9805     17.9851
    98         C          6.0849      7.1825     16.1245
    99         C         24.0026     10.1070     13.2000
   100         C         17.9851     19.2175     19.9805
   101         C         16.1245      6.0849      7.1825
   102         C         22.1420     22.9050      0.0674
   103         C         19.9805     17.9851     19.2175
   104         C          7.1825     16.1245      6.0849
   105         C         10.1070     13.2000     24.0026
   106         C          4.8525      7.9455     18.1199
   107         C          1.9280     10.8700     11.9676
   108         C          0.0674     22.1420     22.9050
   109         C         10.8700     11.9676      1.9280
   110         C         11.9676      1.9280     10.8700
   111         C         13.9630      1.1650     12.1024
   112         C         16.8875      4.0895      5.9501
   113         C          4.0895      5.9501     16.8875
   114         C         18.1199      4.8525      7.9455
   115         C          7.9455     18.1199      4.8525
   116         C          1.1650     12.1024     13.9630
   117         C         12.1024     13.9630      1.1650
   118         C         13.2000     24.0026     10.1070
   119         C         22.9050      0.0674     22.1420
   120         C          5.9501     16.8875      4.0895
   121         C         18.4569     16.9453     20.5630
   122         C          3.5070      6.4219     19.1597
   123         C          2.5105     13.1422     12.4394
   124         C         20.5630     18.4569     16.9453
   125         C         19.1597      3.5070      6.4219
   126         C          1.1072     23.6656     21.5595
   127         C         16.9453     20.5630     18.4569
   128         C          6.4219     19.1597      3.5070
   129         C         13.1422     12.4394      2.5105
   130         C          5.6131      4.9103     15.5420
   131         C         22.9628     11.6306     14.5455
   132         C         21.5595      1.1072     23.6656
   133         C         11.6306     14.5455     22.9628
   134         C         14.5455     22.9628     11.6306
   135         C         10.9278      0.4044      9.5245
   136         C         17.6481      7.1247      8.5280
   137         C          7.1247      8.5280     17.6481
   138         C         15.5420      5.6131      4.9103
   139         C          4.9103     15.5420      5.6131
   140         C          0.4044      9.5245     10.9278
   141         C          9.5245     10.9278      0.4044
   142         C         12.4394      2.5105     13.1422
   143         C         23.6656     21.5595      1.1072
   144         C          8.5280     17.6481      7.1247
   145         C         16.5481     19.0201     20.1899
   146         C          3.8801      4.5131     17.0849
   147         C          2.1374     11.0674     10.5306
   148         C         20.1899     16.5481     19.0201
   149         C         17.0849      3.8801      4.5131
   150         C         23.1024      1.5044     21.9326
   151         C         19.0201     20.1899     16.5481
   152         C          4.5131     17.0849      3.8801
   153         C         11.0674     10.5306      2.1374
   154         C          7.5219      6.9851     15.9151
   155         C          0.9676     13.5394     14.1724
   156         C         21.9326     23.1024      1.5044
   157         C         13.5394     14.1724      0.9676
   158         C         14.1724      0.9676     13.5394
   159         C         13.0026     22.5656      9.8976
   160         C         19.5569      5.0499      8.1549
   161         C          5.0499      8.1549     19.5569
   162         C         15.9151      7.5219      6.9851
   163         C          6.9851     15.9151      7.5219
   164         C         22.5656      9.8976     13.0026
   165         C          9.8976     13.0026     22.5656
   166         C         10.5306      2.1374     11.0674
   167         C          1.5044     21.9326     23.1024
   168         C          8.1549     19.5569      5.0499
   169         C         23.2251     21.9904     23.9087
   170         C          0.1613     11.1901     14.1146
   171         C          5.8562      8.0971     17.2076
   172         C         23.9087     23.2251     21.9904
   173         C         14.1146      0.1613     11.1901
   174         C         20.1321     18.8974     18.2138
   175         C         21.9904     23.9087     23.2251
   176         C         11.1901     14.1146      0.1613
   177         C          8.0971     17.2076      5.8562
   178         C          0.8449      9.9554     12.1963
   179         C          3.9379      6.8624     17.8912
   180         C         18.2138     20.1321     18.8974
   181         C          6.8624     17.8912      3.9379
   182         C         17.8912      3.9379      6.8624
   183         C         15.9729      5.1726      6.1788
   184         C         12.8799      2.0796     11.8737
   185         C          2.0796     11.8737     12.8799
   186         C         12.1963      0.8449      9.9554
   187         C          9.9554     12.1963      0.8449
   188         C          5.1726      6.1788     15.9729
   189         C          6.1788     15.9729      5.1726
   190         C         17.2076      5.8562      8.0971
   191         C         18.8974     18.2138     20.1321
   192         C         11.8737     12.8799      2.0796
   193         C         17.1667     16.7912     21.0083
   194         C          3.0617      5.1317     19.3138
   195         C          2.9558     13.2963     11.1492
   196         C         21.0083     17.1667     16.7912
   197         C         19.3138      3.0617      5.1317
   198         C          1.2613      0.8858     21.1142
   199         C         16.7912     21.0083     17.1667
   200         C          5.1317     19.3138      3.0617
   201         C         13.2963     11.1492      2.9558
   202         C          6.9033      4.7562     15.0967
   203         C         22.8087     12.9208     14.9908
   204         C         21.1142      1.2613      0.8858
   205         C         12.9208     14.9908     22.8087
   206         C         14.9908     22.8087     12.9208
   207         C         10.7737     23.1842      9.0792
   208         C         18.9383      7.2788      8.9733
   209         C          7.2788      8.9733     18.9383
   210         C         15.0967      6.9033      4.7562
   211         C          4.7562     15.0967      6.9033
   212         C         23.1842      9.0792     10.7737
   213         C          9.0792     10.7737     23.1842
   214         C         11.1492      2.9558     13.2963
   215         C          0.8858     21.1142      1.2613
   216         C          8.9733     18.9383      7.2788
   217         C         16.1630     17.8142     20.7291
   218         C          3.3409      4.1280     18.2908
   219         C          2.6766     12.2733     10.1455
   220         C         20.7291     16.1630     17.8142
   221         C         18.2908      3.3409      4.1280
   222         C          0.2383      1.8895     21.3934
   223         C         17.8142     20.7291     16.1630
   224         C          4.1280     18.2908      3.3409
   225         C         12.2733     10.1455      2.6766
   226         C          7.9070      5.7792     15.3759
   227         C         23.8317     13.9245     14.7116
   228         C         21.3934      0.2383      1.8895
   229         C         13.9245     14.7116     23.8317
   230         C         14.7116     23.8317     13.9245
   231         C         11.7967     22.1805      9.3584
   232         C         19.9420      6.2558      8.6941
   233         C          6.2558      8.6941     19.9420
   234         C         15.3759      7.9070      5.7792
   235         C          5.7792     15.3759      7.9070
   236         C         22.1805      9.3584     11.7967
   237         C          9.3584     11.7967     22.1805
   238         C         10.1455      2.6766     12.2733
   239         C          1.8895     21.3934      0.2383
   240         C          8.6941     19.9420      6.2558
   241         C         19.2993     15.8910     20.0335
   242         C          4.0365      7.2643     20.2140
   243         C          1.9810     14.1965     13.2818
   244         C         20.0335     19.2993     15.8910
   245         C         20.2140      4.0365      7.2643
   246         C          2.1615     22.8232     22.0890
   247         C         15.8910     20.0335     19.2993
   248         C          7.2643     20.2140      4.0365
   249         C         14.1965     13.2818      1.9810
   250         C          4.7707      3.8560     16.0715
   251         C         21.9085     10.7882     14.0160
   252         C         22.0890      2.1615     22.8232
   253         C         10.7882     14.0160     21.9085
   254         C         14.0160     21.9085     10.7882
   255         C          9.8735      1.2468     10.0540
   256         C         16.8057      8.1790      7.9985
   257         C          8.1790      7.9985     16.8057
   258         C         16.0715      4.7707      3.8560
   259         C          3.8560     16.0715      4.7707
   260         C          1.2468     10.0540      9.8735
   261         C         10.0540      9.8735      1.2468
   262         C         13.2818      1.9810     14.1965
   263         C         22.8232     22.0890      2.1615
   264         C          7.9985     16.8057      8.1790
   265         C         14.7934     17.3039     20.8133
   266         C          3.2567      2.7584     18.8011
   267         C          2.7608     12.7836      8.7759
   268         C         20.8133     14.7934     17.3039
   269         C         18.8011      3.2567      2.7584
   270         C          0.7486      3.2591     21.3092
   271         C         17.3039     20.8133     14.7934
   272         C          2.7584     18.8011      3.2567
   273         C         12.7836      8.7759      2.7608
   274         C          9.2766      5.2689     15.2917
   275         C         23.3214     15.2941     14.7958
   276         C         21.3092      0.7486      3.2591
   277         C         15.2941     14.7958     23.3214
   278         C         14.7958     23.3214     15.2941
   279         C         11.2864     20.8109      9.2742
   280         C         21.3116      6.7661      8.7783
   281         C          6.7661      8.7783     21.3116
   282         C         15.2917      9.2766      5.2689
   283         C          5.2689     15.2917      9.2766
   284         C         20.8109      9.2742     11.2864
   285         C          9.2742     11.2864     20.8109
   286         C          8.7759      2.7608     12.7836
   287         C          3.2591     21.3092      0.7486
   288         C          8.7783     21.3116      6.7661
   289         H         13.4503     21.5980     17.5518
   290         H          6.5182      1.4153     14.5070
   291         H         23.5693      8.4895      7.4328
   292         H         17.5518     13.4503     21.5980
   293         H         14.5070      6.5182      1.4153
   294         H         20.5245      4.6022      0.5007
   295         H         21.5980     17.5518     13.4503
   296         H          1.4153     14.5070      6.5182
   297         H          8.4895      7.4328     23.5693
   298         H         10.6197      9.5630     18.5532
   299         H          3.5455     16.6372     11.5343
   300         H          0.5007     20.5245      4.6022
   301         H         16.6372     11.5343      3.5455
   302         H         11.5343      3.5455     16.6372
   303         H         15.5805     19.4678     12.5357
   304         H         22.6547      2.4720      5.5168
   305         H          2.4720      5.5168     22.6547
   306         H         18.5532     10.6197      9.5630
   307         H          9.5630     18.5532     10.6197
   308         H         19.4678     12.5357     15.5805
   309         H         12.5357     15.5805     19.4678
   310         H          7.4328     23.5693      8.4895
   311         H          4.6022      0.5007     20.5245
   312         H          5.5168     22.6547      2.4720
   313         H         13.7488     20.1273     19.4991
   314         H          4.5709      1.7138     15.9777
   315         H          1.4466      9.9602      7.7313
   316         H         19.4991     13.7488     20.1273
   317         H         15.9777      4.5709      1.7138
   318         H         21.9952      4.3037     22.6234
   319         H         20.1273     19.4991     13.7488
   320         H          1.7138     15.9777      4.5709
   321         H          9.9602      7.7313      1.4466
   322         H         10.3212      8.0923     16.6059
   323         H          2.0748     16.3387     13.4816
   324         H         22.6234     21.9952      4.3037
   325         H         16.3387     13.4816      2.0748
   326         H         13.4816      2.0748     16.3387
   327         H         14.1098     19.7663     10.5884
   328         H         22.3562      3.9427      7.4641
   329         H          3.9427      7.4641     22.3562
   330         H         16.6059     10.3212      8.0923
   331         H          8.0923     16.6059     10.3212
   332         H         19.7663     10.5884     14.1098
   333         H         10.5884     14.1098     19.7663
   334         H          7.7313      1.4466      9.9602
   335         H          4.3037     22.6234     21.9952
   336         H          7.4641     22.3562      3.9427
   337         H         14.0039     17.8985     20.3367
   338         H          3.7333      1.9689     18.2065
   339         H          2.2842     12.1890      7.9864
   340         H         20.3367     14.0039     17.8985
   341         H         18.2065      3.7333      1.9689
   342         H          0.1540      4.0486     21.7858
   343         H         17.8985     20.3367     14.0039
   344         H          1.9689     18.2065      3.7333
   345         H         12.1890      7.9864      2.2842
   346         H         10.0661      5.8635     15.7683
   347         H         23.9160     16.0836     14.3192
   348         H         21.7858      0.1540      4.0486
   349         H         16.0836     14.3192     23.9160
   350         H         14.3192     23.9160     16.0836
   351         H         11.8810     20.0214      9.7508
   352         H         22.1011      6.1715      8.3017
   353         H          6.1715      8.3017     22.1011
   354         H         15.7683     10.0661      5.8635
   355         H          5.8635     15.7683     10.0661
   356         H         20.0214      9.7508     11.8810
   357         H          9.7508     11.8810     20.0214
   358         H          7.9864      2.2842     12.1890
   359         H          4.0486     21.7858      0.1540
   360         H          8.3017     22.1011      6.1715

 General Reference for PM7:
 "Optimization of Parameters for Semiempirical Methods VI: More Modifications to the 
 NDDO Approximations and Re-optimization of Parameters", J. J. P. Stewart, J. Mol. Mod., 1:32, 19 (2013)
 https://link.springer.com/article/10.1007/s00894-012-1667-x

           Empirical Formula: C264 H72 N24  =   360 atoms



      RHF CALCULATION, NO. OF DOUBLY OCCUPIED LEVELS = 624


 -------------------------------------------------------------------------------
 PM7 CHARGE=0 NOOPT




     NO PARAMETERS MARKED FOR OPTIMIZATION, SO 1SCF WAS USED  
     SCF FIELD WAS ACHIEVED                                   


                              PM7 CALCULATION
                                                       MOPAC v22.1.0 Linux
                                                       Wed Jan 31 09:13:44 2024




          FINAL HEAT OF FORMATION =       3176.76034 KCAL/MOL =   13291.56524 KJ/MOL
          H.o.F. per unit cell    =        132.36501 KCAL, for 24 unit cells, unit cell = C11 H3 N1



          IONIZATION POTENTIAL    =          5.755126 EV
          HOMO LUMO ENERGIES (EV) =         -5.755 -2.833
          NO. OF FILLED LEVELS    =        624
          MOLECULAR WEIGHT        =       3579.6336

                   THE SYSTEM IS A SOLID


                UNIT CELL TRANSLATION VECTORS

              X                Y              Z
    T1 =    24.0700000      0.0000000      0.0000000
    T2 =     0.0000000     24.0700000      0.0000000
    T3 =     0.0000000      0.0000000     24.0700000

          VOLUME OF UNIT CELL     =      13945.313 CUBIC ANGSTROMS

          DENSITY                 =          0.426 GRAMS/CC
                              A   =         24.070 ANGSTROMS
                              B   =         24.070 ANGSTROMS
                              C   =         24.070 ANGSTROMS
                            ALPHA =         90.000 DEGREES
                            BETA  =         90.000 DEGREES
                            GAMMA =         90.000 DEGREES



          SCF CALCULATIONS        =          1

          WALL-CLOCK TIME         =          7 MINUTES AND 17.922 SECONDS
          COMPUTATION TIME        =          7 MINUTES AND 17.901 SECONDS




   ATOM   CHEMICAL          X               Y               Z
  NUMBER   SYMBOL      (ANGSTROMS)     (ANGSTROMS)     (ANGSTROMS)

     1       N         16.88029100     15.47701000     21.48728900   
     2       N          2.58271100      4.84529100     20.62799000   
     3       N          3.43478900     14.61049000     10.86279100   
     4       N         21.48728900     16.88029100     15.47701000   
     5       N         20.62799000      2.58271100      4.84529100   
     6       N          2.57549000      1.17220900     20.63521100   
     7       N         15.47701000     21.48728900     16.88029100   
     8       N          4.84529100     20.62799000      2.58271100   
     9       N         14.61049000     10.86279100      3.43478900   
    10       N          7.18970900      3.44201000     14.61771100   
    11       N         21.49451000     13.20720900     15.46978900   
    12       N         20.63521100      2.57549000      1.17220900   
    13       N         13.20720900     15.46978900     21.49451000   
    14       N         15.46978900     21.49451000     13.20720900   
    15       N          9.45951000     22.89779100      8.60021100   
    16       N         19.22470900      8.59299000      9.45228900   
    17       N          8.59299000      9.45228900     19.22470900   
    18       N         14.61771100      7.18970900      3.44201000   
    19       N          3.44201000     14.61771100      7.18970900   
    20       N         22.89779100      8.60021100      9.45951000   
    21       N          8.60021100      9.45951000     22.89779100   
    22       N         10.86279100      3.43478900     14.61049000   
    23       N          1.17220900     20.63521100      2.57549000   
    24       N          9.45228900     19.22470900      8.59299000   
    25       C         17.76606700     14.46125600     21.22974000   
    26       C          2.84026000      5.73106700     21.64374400   
    27       C          3.17724000     15.62624400     11.74856700   
    28       C         21.22974000     17.76606700     14.46125600   
    29       C         21.64374400      2.84026000      5.73106700   
    30       C          3.59124400      0.28643300     20.89276000   
    31       C         14.46125600     21.22974000     17.76606700   
    32       C          5.73106700     21.64374400      2.84026000   
    33       C         15.62624400     11.74856700      3.17724000   
    34       C          6.30393300      2.42625600     14.87526000   
    35       C         20.47875600     12.32143300     15.21224000   
    36       C         20.89276000      3.59124400      0.28643300   
    37       C         12.32143300     15.21224000     20.47875600   
    38       C         15.21224000     20.47875600     12.32143300   
    39       C          8.44375600     23.78356700      8.85776000   
    40       C         18.33893300      9.60874400      9.19474000   
    41       C          9.60874400      9.19474000     18.33893300   
    42       C         14.87526000      6.30393300      2.42625600   
    43       C          2.42625600     14.87526000      6.30393300   
    44       C         23.78356700      8.85776000      8.44375600   
    45       C          8.85776000      8.44375600     23.78356700   
    46       C         11.74856700      3.17724000     15.62624400   
    47       C          0.28643300     20.89276000      3.59124400   
    48       C          9.19474000     18.33893300      9.60874400   
    49       C         18.94068300     14.63696700     20.42098800   
    50       C          3.64901200      6.90568300     21.46803300   
    51       C          2.36848800     15.45053300     12.92318300   
    52       C         20.42098800     18.94068300     14.63696700   
    53       C         21.46803300      3.64901200      6.90568300   
    54       C          3.41553300     23.18181700     21.70151200   
    55       C         14.63696700     20.42098800     18.94068300   
    56       C          6.90568300     21.46803300      3.64901200   
    57       C         15.45053300     12.92318300      2.36848800   
    58       C          5.12931700      2.60196700     15.68401200   
    59       C         20.65446700     11.14681700     14.40348800   
    60       C         21.70151200      3.41553300     23.18181700   
    61       C         11.14681700     14.40348800     20.65446700   
    62       C         14.40348800     20.65446700     11.14681700   
    63       C          8.61946700      0.88818300      9.66651200   
    64       C         17.16431700      9.43303300      8.38598800   
    65       C          9.43303300      8.38598800     17.16431700   
    66       C         15.68401200      5.12931700      2.60196700   
    67       C          2.60196700     15.68401200      5.12931700   
    68       C          0.88818300      9.66651200      8.61946700   
    69       C          9.66651200      8.61946700      0.88818300   
    70       C         12.92318300      2.36848800     15.45053300   
    71       C         23.18181700     21.70151200      3.41553300   
    72       C          8.38598800     17.16431700      9.43303300   
    73       C         15.55884800     15.38313700     22.14199300   
    74       C          1.92800700      3.52384800     20.72186300   
    75       C          4.08949300     14.70436300      9.54134800   
    76       C         22.14199300     15.55884800     15.38313700   
    77       C         20.72186300      1.92800700      3.52384800   
    78       C          2.66936300      2.49365200     19.98050700   
    79       C         15.38313700     22.14199300     15.55884800   
    80       C          3.52384800     20.72186300      1.92800700   
    81       C         14.70436300      9.54134800      4.08949300   
    82       C          8.51115200      3.34813700     13.96300700   
    83       C         21.40063700     14.52865200     16.12449300   
    84       C         19.98050700      2.66936300      2.49365200   
    85       C         14.52865200     16.12449300     21.40063700   
    86       C         16.12449300     21.40063700     14.52865200   
    87       C          9.36563700     21.57634800      7.94550700   
    88       C         20.54615200      8.68686300     10.10699300   
    89       C          8.68686300     10.10699300     20.54615200   
    90       C         13.96300700      8.51115200      3.34813700   
    91       C          3.34813700     13.96300700      8.51115200   
    92       C         21.57634800      7.94550700      9.36563700   
    93       C          7.94550700      9.36563700     21.57634800   
    94       C          9.54134800      4.08949300     14.70436300   
    95       C          2.49365200     19.98050700      2.66936300   
    96       C         10.10699300     20.54615200      8.68686300   
    97       C         19.21748800     19.98050700     17.98510400   
    98       C          6.08489600      7.18248800     16.12449300   
    99       C         24.00260400     10.10699300     13.19998800   
   100       C         17.98510400     19.21748800     19.98050700   
   101       C         16.12449300      6.08489600      7.18248800   
   102       C         22.14199300     22.90501200      0.06739600   
   103       C         19.98050700     17.98510400     19.21748800   
   104       C          7.18248800     16.12449300      6.08489600   
   105       C         10.10699300     13.19998800     24.00260400   
   106       C          4.85251200      7.94550700     18.11989600   
   107       C          1.92800700     10.87001200     11.96760400   
   108       C          0.06739600     22.14199300     22.90501200   
   109       C         10.87001200     11.96760400      1.92800700   
   110       C         11.96760400      1.92800700     10.87001200   
   111       C         13.96300700      1.16498800     12.10239600   
   112       C         16.88751200      4.08949300      5.95010400   
   113       C          4.08949300      5.95010400     16.88751200   
   114       C         18.11989600      4.85251200      7.94550700   
   115       C          7.94550700     18.11989600      4.85251200   
   116       C          1.16498800     12.10239600     13.96300700   
   117       C         12.10239600     13.96300700      1.16498800   
   118       C         13.19998800     24.00260400     10.10699300   
   119       C         22.90501200      0.06739600     22.14199300   
   120       C          5.95010400     16.88751200      4.08949300   
   121       C         18.45687600     16.94528000     20.56300100   
   122       C          3.50699900      6.42187600     19.15972000   
   123       C          2.51050100     13.14222000     12.43937600   
   124       C         20.56300100     18.45687600     16.94528000   
   125       C         19.15972000      3.50699900      6.42187600   
   126       C          1.10722000     23.66562400     21.55949900   
   127       C         16.94528000     20.56300100     18.45687600   
   128       C          6.42187600     19.15972000      3.50699900   
   129       C         13.14222000     12.43937600      2.51050100   
   130       C          5.61312400      4.91028000     15.54199900   
   131       C         22.96278000     11.63062400     14.54550100   
   132       C         21.55949900      1.10722000     23.66562400   
   133       C         11.63062400     14.54550100     22.96278000   
   134       C         14.54550100     22.96278000     11.63062400   
   135       C         10.92778000      0.40437600      9.52449900   
   136       C         17.64812400      7.12472000      8.52800100   
   137       C          7.12472000      8.52800100     17.64812400   
   138       C         15.54199900      5.61312400      4.91028000   
   139       C          4.91028000     15.54199900      5.61312400   
   140       C          0.40437600      9.52449900     10.92778000   
   141       C          9.52449900     10.92778000      0.40437600   
   142       C         12.43937600      2.51050100     13.14222000   
   143       C         23.66562400     21.55949900      1.10722000   
   144       C          8.52800100     17.64812400      7.12472000   
   145       C         16.54812500     19.02011400     20.18991600   
   146       C          3.88008400      4.51312500     17.08488600   
   147       C          2.13741600     11.06738600     10.53062500   
   148       C         20.18991600     16.54812500     19.02011400   
   149       C         17.08488600      3.88008400      4.51312500   
   150       C         23.10238600      1.50437500     21.93258400   
   151       C         19.02011400     20.18991600     16.54812500   
   152       C          4.51312500     17.08488600      3.88008400   
   153       C         11.06738600     10.53062500      2.13741600   
   154       C          7.52187500      6.98511400     15.91508400   
   155       C          0.96761400     13.53937500     14.17241600   
   156       C         21.93258400     23.10238600      1.50437500   
   157       C         13.53937500     14.17241600      0.96761400   
   158       C         14.17241600      0.96761400     13.53937500   
   159       C         13.00261400     22.56562500      9.89758400   
   160       C         19.55687500      5.04988600      8.15491600   
   161       C          5.04988600      8.15491600     19.55687500   
   162       C         15.91508400      7.52187500      6.98511400   
   163       C          6.98511400     15.91508400      7.52187500   
   164       C         22.56562500      9.89758400     13.00261400   
   165       C          9.89758400     13.00261400     22.56562500   
   166       C         10.53062500      2.13741600     11.06738600   
   167       C          1.50437500     21.93258400     23.10238600   
   168       C          8.15491600     19.55687500      5.04988600   
   169       C         23.22514300     21.99035200     23.90873100   
   170       C          0.16126900     11.19014300     14.11464800   
   171       C          5.85623100      8.09714800     17.20764300   
   172       C         23.90873100     23.22514300     21.99035200   
   173       C         14.11464800      0.16126900     11.19014300   
   174       C         20.13214800     18.89735700     18.21376900   
   175       C         21.99035200     23.90873100     23.22514300   
   176       C         11.19014300     14.11464800      0.16126900   
   177       C          8.09714800     17.20764300      5.85623100   
   178       C          0.84485700      9.95535200     12.19626900   
   179       C          3.93785200      6.86235700     17.89123100   
   180       C         18.21376900     20.13214800     18.89735700   
   181       C          6.86235700     17.89123100      3.93785200   
   182       C         17.89123100      3.93785200      6.86235700   
   183       C         15.97285200      5.17264300      6.17876900   
   184       C         12.87985700      2.07964800     11.87373100   
   185       C          2.07964800     11.87373100     12.87985700   
   186       C         12.19626900      0.84485700      9.95535200   
   187       C          9.95535200     12.19626900      0.84485700   
   188       C          5.17264300      6.17876900     15.97285200   
   189       C          6.17876900     15.97285200      5.17264300   
   190       C         17.20764300      5.85623100      8.09714800   
   191       C         18.89735700     18.21376900     20.13214800   
   192       C         11.87373100     12.87985700      2.07964800   
   193       C         17.16672400     16.79123200     21.00829600   
   194       C          3.06170400      5.13172400     19.31376800   
   195       C          2.95579600     13.29626800     11.14922400   
   196       C         21.00829600     17.16672400     16.79123200   
   197       C         19.31376800      3.06170400      5.13172400   
   198       C          1.26126800      0.88577600     21.11420400   
   199       C         16.79123200     21.00829600     17.16672400   
   200       C          5.13172400     19.31376800      3.06170400   
   201       C         13.29626800     11.14922400      2.95579600   
   202       C          6.90327600      4.75623200     15.09670400   
   203       C         22.80873200     12.92077600     14.99079600   
   204       C         21.11420400      1.26126800      0.88577600   
   205       C         12.92077600     14.99079600     22.80873200   
   206       C         14.99079600     22.80873200     12.92077600   
   207       C         10.77373200     23.18422400      9.07920400   
   208       C         18.93827600      7.27876800      8.97329600   
   209       C          7.27876800      8.97329600     18.93827600   
   210       C         15.09670400      6.90327600      4.75623200   
   211       C          4.75623200     15.09670400      6.90327600   
   212       C         23.18422400      9.07920400     10.77373200   
   213       C          9.07920400     10.77373200     23.18422400   
   214       C         11.14922400      2.95579600     13.29626800   
   215       C          0.88577600     21.11420400      1.26126800   
   216       C          8.97329600     18.93827600      7.27876800   
   217       C         16.16300500     17.81420700     20.72908400   
   218       C          3.34091600      4.12800500     18.29079300   
   219       C          2.67658400     12.27329300     10.14550500   
   220       C         20.72908400     16.16300500     17.81420700   
   221       C         18.29079300      3.34091600      4.12800500   
   222       C          0.23829300      1.88949500     21.39341600   
   223       C         17.81420700     20.72908400     16.16300500   
   224       C          4.12800500     18.29079300      3.34091600   
   225       C         12.27329300     10.14550500      2.67658400   
   226       C          7.90699500      5.77920700     15.37591600   
   227       C         23.83170700     13.92449500     14.71158400   
   228       C         21.39341600      0.23829300      1.88949500   
   229       C         13.92449500     14.71158400     23.83170700   
   230       C         14.71158400     23.83170700     13.92449500   
   231       C         11.79670700     22.18050500      9.35841600   
   232       C         19.94199500      6.25579300      8.69408400   
   233       C          6.25579300      8.69408400     19.94199500   
   234       C         15.37591600      7.90699500      5.77920700   
   235       C          5.77920700     15.37591600      7.90699500   
   236       C         22.18050500      9.35841600     11.79670700   
   237       C          9.35841600     11.79670700     22.18050500   
   238       C         10.14550500      2.67658400     12.27329300   
   239       C          1.88949500     21.39341600      0.23829300   
   240       C          8.69408400     19.94199500      6.25579300   
   241       C         19.29932600     15.89101400     20.03346100   
   242       C          4.03653900      7.26432600     20.21398600   
   243       C          1.98096100     14.19648600     13.28182600   
   244       C         20.03346100     19.29932600     15.89101400   
   245       C         20.21398600      4.03653900      7.26432600   
   246       C          2.16148600     22.82317400     22.08903900   
   247       C         15.89101400     20.03346100     19.29932600   
   248       C          7.26432600     20.21398600      4.03653900   
   249       C         14.19648600     13.28182600      1.98096100   
   250       C          4.77067400      3.85601400     16.07153900   
   251       C         21.90851400     10.78817400     14.01596100   
   252       C         22.08903900      2.16148600     22.82317400   
   253       C         10.78817400     14.01596100     21.90851400   
   254       C         14.01596100     21.90851400     10.78817400   
   255       C          9.87351400      1.24682600     10.05403900   
   256       C         16.80567400      8.17898600      7.99846100   
   257       C          8.17898600      7.99846100     16.80567400   
   258       C         16.07153900      4.77067400      3.85601400   
   259       C          3.85601400     16.07153900      4.77067400   
   260       C          1.24682600     10.05403900      9.87351400   
   261       C         10.05403900      9.87351400      1.24682600   
   262       C         13.28182600      1.98096100     14.19648600   
   263       C         22.82317400     22.08903900      2.16148600   
   264       C          7.99846100     16.80567400      8.17898600   
   265       C         14.79342200     17.30392300     20.81332900   
   266       C          3.25667100      2.75842200     18.80107700   
   267       C          2.76082900     12.78357700      8.77592200   
   268       C         20.81332900     14.79342200     17.30392300   
   269       C         18.80107700      3.25667100      2.75842200   
   270       C          0.74857700      3.25907800     21.30917100   
   271       C         17.30392300     20.81332900     14.79342200   
   272       C          2.75842200     18.80107700      3.25667100   
   273       C         12.78357700      8.77592200      2.76082900   
   274       C          9.27657800      5.26892300     15.29167100   
   275       C         23.32142300     15.29407800     14.79582900   
   276       C         21.30917100      0.74857700      3.25907800   
   277       C         15.29407800     14.79582900     23.32142300   
   278       C         14.79582900     23.32142300     15.29407800   
   279       C         11.28642300     20.81092200      9.27417100   
   280       C         21.31157800      6.76607700      8.77832900   
   281       C          6.76607700      8.77832900     21.31157800   
   282       C         15.29167100      9.27657800      5.26892300   
   283       C          5.26892300     15.29167100      9.27657800   
   284       C         20.81092200      9.27417100     11.28642300   
   285       C          9.27417100     11.28642300     20.81092200   
   286       C          8.77592200      2.76082900     12.78357700   
   287       C          3.25907800     21.30917100      0.74857700   
   288       C          8.77832900     21.31157800      6.76607700   
   289       H         13.45031600     21.59801100     17.55184400   
   290       H          6.51815600      1.41531600     14.50698900   
   291       H         23.56934400      8.48948900      7.43281600   
   292       H         17.55184400     13.45031600     21.59801100   
   293       H         14.50698900      6.51815600      1.41531600   
   294       H         20.52448900      4.60218400      0.50065600   
   295       H         21.59801100     17.55184400     13.45031600   
   296       H          1.41531600     14.50698900      6.51815600   
   297       H          8.48948900      7.43281600     23.56934400   
   298       H         10.61968400      9.56301100     18.55315600   
   299       H          3.54551100     16.63718400     11.53434400   
   300       H          0.50065600     20.52448900      4.60218400   
   301       H         16.63718400     11.53434400      3.54551100   
   302       H         11.53434400      3.54551100     16.63718400   
   303       H         15.58051100     19.46781600     12.53565600   
   304       H         22.65468400      2.47198900      5.51684400   
   305       H          2.47198900      5.51684400     22.65468400   
   306       H         18.55315600     10.61968400      9.56301100   
   307       H          9.56301100     18.55315600     10.61968400   
   308       H         19.46781600     12.53565600     15.58051100   
   309       H         12.53565600     15.58051100     19.46781600   
   310       H          7.43281600     23.56934400      8.48948900   
   311       H          4.60218400      0.50065600     20.52448900   
   312       H          5.51684400     22.65468400      2.47198900   
   313       H         13.74878400     20.12733400     19.49910700   
   314       H          4.57089300      1.71378400     15.97766600   
   315       H          1.44660700      9.96016600      7.73128400   
   316       H         19.49910700     13.74878400     20.12733400   
   317       H         15.97766600      4.57089300      1.71378400   
   318       H         21.99516600      4.30371600     22.62339300   
   319       H         20.12733400     19.49910700     13.74878400   
   320       H          1.71378400     15.97766600      4.57089300   
   321       H          9.96016600      7.73128400      1.44660700   
   322       H         10.32121600      8.09233400     16.60589300   
   323       H          2.07483400     16.33871600     13.48160700   
   324       H         22.62339300     21.99516600      4.30371600   
   325       H         16.33871600     13.48160700      2.07483400   
   326       H         13.48160700      2.07483400     16.33871600   
   327       H         14.10983400     19.76628400     10.58839300   
   328       H         22.35621600      3.94266600      7.46410700   
   329       H          3.94266600      7.46410700     22.35621600   
   330       H         16.60589300     10.32121600      8.09233400   
   331       H          8.09233400     16.60589300     10.32121600   
   332       H         19.76628400     10.58839300     14.10983400   
   333       H         10.58839300     14.10983400     19.76628400   
   334       H          7.73128400      1.44660700      9.96016600   
   335       H          4.30371600     22.62339300     21.99516600   
   336       H          7.46410700     22.35621600      3.94266600   
   337       H         14.00392600     17.89845200     20.33674300   
   338       H          3.73325700      1.96892600     18.20654800   
   339       H          2.28424300     12.18904800      7.98642600   
   340       H         20.33674300     14.00392600     17.89845200   
   341       H         18.20654800      3.73325700      1.96892600   
   342       H          0.15404800      4.04857400     21.78575700   
   343       H         17.89845200     20.33674300     14.00392600   
   344       H          1.96892600     18.20654800      3.73325700   
   345       H         12.18904800      7.98642600      2.28424300   
   346       H         10.06607400      5.86345200     15.76825700   
   347       H         23.91595200     16.08357400     14.31924300   
   348       H         21.78575700      0.15404800      4.04857400   
   349       H         16.08357400     14.31924300     23.91595200   
   350       H         14.31924300     23.91595200     16.08357400   
   351       H         11.88095200     20.02142600      9.75075700   
   352       H         22.10107400      6.17154800      8.30174300   
   353       H          6.17154800      8.30174300     22.10107400   
   354       H         15.76825700     10.06607400      5.86345200   
   355       H          5.86345200     15.76825700     10.06607400   
   356       H         20.02142600      9.75075700     11.88095200   
   357       H          9.75075700     11.88095200     20.02142600   
   358       H          7.98642600      2.28424300     12.18904800   
   359       H          4.04857400     21.78575700      0.15404800   
   360       H          8.30174300     22.10107400      6.17154800   
   361      Tv         24.07000000      0.00000000      0.00000000   
   362      Tv          0.00000000     24.07000000      0.00000000   
   363      Tv          0.00000000      0.00000000     24.07000000   

                             CARTESIAN COORDINATES

   1    N       16.880291000    15.477010000    21.487289000
   2    N        2.582711000     4.845291000    20.627990000
   3    N        3.434789000    14.610490000    10.862791000
   4    N       21.487289000    16.880291000    15.477010000
   5    N       20.627990000     2.582711000     4.845291000
   6    N        2.575490000     1.172209000    20.635211000
   7    N       15.477010000    21.487289000    16.880291000
   8    N        4.845291000    20.627990000     2.582711000
   9    N       14.610490000    10.862791000     3.434789000
  10    N        7.189709000     3.442010000    14.617711000
  11    N       21.494510000    13.207209000    15.469789000
  12    N       20.635211000     2.575490000     1.172209000
  13    N       13.207209000    15.469789000    21.494510000
  14    N       15.469789000    21.494510000    13.207209000
  15    N        9.459510000    22.897791000     8.600211000
  16    N       19.224709000     8.592990000     9.452289000
  17    N        8.592990000     9.452289000    19.224709000
  18    N       14.617711000     7.189709000     3.442010000
  19    N        3.442010000    14.617711000     7.189709000
  20    N       22.897791000     8.600211000     9.459510000
  21    N        8.600211000     9.459510000    22.897791000
  22    N       10.862791000     3.434789000    14.610490000
  23    N        1.172209000    20.635211000     2.575490000
  24    N        9.452289000    19.224709000     8.592990000
  25    C       17.766067000    14.461256000    21.229740000
  26    C        2.840260000     5.731067000    21.643744000
  27    C        3.177240000    15.626244000    11.748567000
  28    C       21.229740000    17.766067000    14.461256000
  29    C       21.643744000     2.840260000     5.731067000
  30    C        3.591244000     0.286433000    20.892760000
  31    C       14.461256000    21.229740000    17.766067000
  32    C        5.731067000    21.643744000     2.840260000
  33    C       15.626244000    11.748567000     3.177240000
  34    C        6.303933000     2.426256000    14.875260000
  35    C       20.478756000    12.321433000    15.212240000
  36    C       20.892760000     3.591244000     0.286433000
  37    C       12.321433000    15.212240000    20.478756000
  38    C       15.212240000    20.478756000    12.321433000
  39    C        8.443756000    23.783567000     8.857760000
  40    C       18.338933000     9.608744000     9.194740000
  41    C        9.608744000     9.194740000    18.338933000
  42    C       14.875260000     6.303933000     2.426256000
  43    C        2.426256000    14.875260000     6.303933000
  44    C       23.783567000     8.857760000     8.443756000
  45    C        8.857760000     8.443756000    23.783567000
  46    C       11.748567000     3.177240000    15.626244000
  47    C        0.286433000    20.892760000     3.591244000
  48    C        9.194740000    18.338933000     9.608744000
  49    C       18.940683000    14.636967000    20.420988000
  50    C        3.649012000     6.905683000    21.468033000
  51    C        2.368488000    15.450533000    12.923183000
  52    C       20.420988000    18.940683000    14.636967000
  53    C       21.468033000     3.649012000     6.905683000
  54    C        3.415533000    23.181817000    21.701512000
  55    C       14.636967000    20.420988000    18.940683000
  56    C        6.905683000    21.468033000     3.649012000
  57    C       15.450533000    12.923183000     2.368488000
  58    C        5.129317000     2.601967000    15.684012000
  59    C       20.654467000    11.146817000    14.403488000
  60    C       21.701512000     3.415533000    23.181817000
  61    C       11.146817000    14.403488000    20.654467000
  62    C       14.403488000    20.654467000    11.146817000
  63    C        8.619467000     0.888183000     9.666512000
  64    C       17.164317000     9.433033000     8.385988000
  65    C        9.433033000     8.385988000    17.164317000
  66    C       15.684012000     5.129317000     2.601967000
  67    C        2.601967000    15.684012000     5.129317000
  68    C        0.888183000     9.666512000     8.619467000
  69    C        9.666512000     8.619467000     0.888183000
  70    C       12.923183000     2.368488000    15.450533000
  71    C       23.181817000    21.701512000     3.415533000
  72    C        8.385988000    17.164317000     9.433033000
  73    C       15.558848000    15.383137000    22.141993000
[...]
  293          H           0.174686        0.8253     0.82531
  294          H           0.168963        0.8310     0.83104
  295          H           0.171515        0.8285     0.82848
  296          H           0.181786        0.8182     0.81821
  297          H           0.183497        0.8165     0.81650
  298          H           0.179069        0.8209     0.82093
  299          H           0.174784        0.8252     0.82522
  300          H           0.183648        0.8164     0.81635
  301          H           0.177002        0.8230     0.82300
  302          H           0.165457        0.8345     0.83454
  303          H           0.170343        0.8297     0.82966
  304          H           0.160761        0.8392     0.83924
  305          H           0.177049        0.8230     0.82295
  306          H           0.174038        0.8260     0.82596
  307          H           0.178304        0.8217     0.82170
  308          H           0.169636        0.8304     0.83036
  309          H           0.177358        0.8226     0.82264
  310          H           0.185469        0.8145     0.81453
  311          H           0.176154        0.8238     0.82385
  312          H           0.178490        0.8215     0.82151
  313          H           0.169382        0.8306     0.83062
  314          H           0.155259        0.8447     0.84474
  315          H           0.179117        0.8209     0.82088
  316          H           0.188156        0.8118     0.81184
  317          H           0.164797        0.8352     0.83520
  318          H           0.171303        0.8287     0.82870
  319          H           0.175367        0.8246     0.82463
  320          H           0.181957        0.8180     0.81804
  321          H           0.178080        0.8219     0.82192
  322          H           0.178307        0.8217     0.82169
  323          H           0.172937        0.8271     0.82706
  324          H           0.176174        0.8238     0.82383
  325          H           0.178234        0.8218     0.82177
  326          H           0.168491        0.8315     0.83151
  327          H           0.174373        0.8256     0.82563
  328          H           0.156386        0.8436     0.84361
  329          H           0.183098        0.8169     0.81690
  330          H           0.180327        0.8197     0.81967
  331          H           0.171760        0.8282     0.82824
  332          H           0.155374        0.8446     0.84463
  333          H           0.173923        0.8261     0.82608
  334          H           0.190063        0.8099     0.80994
  335          H           0.177872        0.8221     0.82213
  336          H           0.175912        0.8241     0.82409
  337          H           0.187589        0.8124     0.81241
  338          H           0.181390        0.8186     0.81861
  339          H           0.166200        0.8338     0.83380
  340          H           0.181922        0.8181     0.81808
  341          H           0.176077        0.8239     0.82392
  342          H           0.164841        0.8352     0.83516
  343          H           0.161271        0.8387     0.83873
  344          H           0.176943        0.8231     0.82306
  345          H           0.182771        0.8172     0.81723
  346          H           0.172045        0.8280     0.82795
  347          H           0.173545        0.8265     0.82645
  348          H           0.182493        0.8175     0.81751
  349          H           0.164750        0.8352     0.83525
  350          H           0.166916        0.8331     0.83308
  351          H           0.188008        0.8120     0.81199
  352          H           0.170607        0.8294     0.82939
  353          H           0.173708        0.8263     0.82629
  354          H           0.170612        0.8294     0.82939
  355          H           0.183277        0.8167     0.81672
  356          H           0.178624        0.8214     0.82138
  357          H           0.181388        0.8186     0.81861
  358          H           0.179489        0.8205     0.82051
  359          H           0.180544        0.8195     0.81946
  360          H           0.167445        0.8326     0.83256


          ATOMIC ORBITAL ELECTRON POPULATIONS

     Atom    s        px        py        pz   
    1  N   1.51864   1.15422   1.10641   1.27833
    2  N   1.52169   1.32478   1.16039   1.11371
    3  N   1.52686   1.37844   1.12150   1.16319
    4  N   1.52131   1.39154   1.17238   1.11322
    5  N   1.52353   1.12141   1.47284   1.17213
    6  N   1.52931   1.12470   1.16658   1.39893
    7  N   1.52625   1.11602   1.41768   1.16679
    8  N   1.52247   1.16279   1.11458   1.33799
    9  N   1.52072   1.11111   1.16534   1.33820
   10  N   1.52285   1.16295   1.11420   1.43649
   11  N   1.52142   1.11225   1.15800   1.40197
   12  N   1.52358   1.43045   1.11855   1.17491
   13  N   1.52663   1.16246   1.38484   1.12009
   14  N   1.52690   1.39122   1.11799   1.16494
   15  N   1.51939   1.10707   1.15580   1.28238
   16  N   1.53022   1.16844   1.12971   1.39413
   17  N   1.52347   1.11551   1.34001   1.16171
   18  N   1.52333   1.37877   1.15774   1.11425
   19  N   1.51839   1.10523   1.29045   1.15697
   20  N   1.52257   1.16541   1.36336   1.11693
   21  N   1.51835   1.28721   1.10486   1.15281
   22  N   1.52118   1.17656   1.43860   1.11291
   23  N   1.51892   1.15259   1.29999   1.10519
   24  N   1.52444   1.37371   1.15881   1.11656
   25  C   1.09729   0.95466   0.95462   0.98240
   26  C   1.10125   0.94712   0.93873   0.94752
   27  C   1.08521   1.03827   0.95304   0.95744
   28  C   1.09264   0.98993   0.94636   0.94395
   29  C   1.07580   0.94451   1.07191   0.96464
   30  C   1.09467   0.94996   0.93358   0.97850
   31  C   1.09205   0.95110   0.98437   0.93368
   32  C   1.08933   0.95850   0.95091   1.01663
   33  C   1.09604   0.94714   0.94701   0.97547
   34  C   1.06851   0.97909   0.95632   1.12268
   35  C   1.06607   0.95985   0.98963   1.14244
   36  C   1.09211   0.98457   0.94116   0.93985
   37  C   1.08418   0.95711   1.04484   0.95478
   38  C   1.09804   0.95157   0.94935   0.92746
   39  C   1.09799   0.95460   0.95310   0.98005
   40  C   1.10073   0.92519   0.94462   0.94170
   41  C   1.08800   0.95294   1.02805   0.96063
   42  C   1.07412   1.10302   0.97752   0.95963
   43  C   1.09459   0.95295   0.99186   0.95690
   44  C   1.10010   0.93449   0.94747   0.94381
   45  C   1.08365   1.05862   0.95947   0.97725
   46  C   1.08717   0.94859   1.01289   0.94260
   47  C   1.07949   0.98228   1.08364   0.96220
   48  C   1.07860   1.07983   0.97005   0.95821
   49  C   1.07810   1.02342   1.07729   1.04917
   50  C   1.07226   1.08966   1.04704   1.08225
   51  C   1.07808   1.03009   1.06987   1.01483
   52  C   1.07294   1.06010   1.03057   1.07372
   53  C   1.07357   1.05580   1.01835   1.00925
   54  C   1.07347   1.07426   1.03921   1.06800
   55  C   1.06866   1.06476   1.07879   1.04709
   56  C   1.07742   1.01889   1.07346   1.04174
   57  C   1.07355   1.07785   1.03563   1.07145
   58  C   1.07808   0.99081   1.04756   0.98274
   59  C   1.08105   1.04639   0.98036   0.96630
   60  C   1.07049   1.06960   1.07162   1.03755
   61  C   1.07849   1.01220   1.02190   1.06669
   62  C   1.06736   1.09904   1.07060   1.05742
   63  C   1.07889   1.07837   1.02141   1.04585
   64  C   1.07150   1.05158   1.08221   1.09366
   65  C   1.07914   1.07269   1.03009   1.01268
   66  C   1.08111   0.98741   0.99155   1.05635
   67  C   1.07672   1.07618   1.05455   1.02607
   68  C   1.07074   1.05000   1.09441   1.08173
   69  C   1.08205   1.00488   1.06580   0.99857
   70  C   1.07121   1.02804   1.05269   1.06669
   71  C   1.08376   0.98840   0.98570   1.06083
   72  C   1.08089   0.99637   0.99765   1.06072
   73  C   1.03381   0.80373   1.25982   1.03597
   74  C   1.03409   1.03128   0.80902   1.25042
   75  C   1.06393   0.94652   1.00296   0.79142
   76  C   1.05158   0.98974   0.80898   1.14693
   77  C   1.06587   0.99942   0.94301   0.81208
   78  C   1.05915   1.04323   0.79557   0.96100
   79  C   1.04671   1.14256   0.98492   0.79981
   80  C   1.05508   0.79521   1.09165   0.97525
   81  C   1.04431   1.19159   0.80333   1.00707
   82  C   1.06925   0.79971   0.97955   0.93712
   83  C   1.06608   0.99042   0.79732   0.94388
   84  C   1.05886   0.97930   1.09666   0.81388
   85  C   1.06349   0.79225   0.94636   1.00377
   86  C   1.04529   0.99365   1.16902   0.80012
   87  C   1.03761   1.23868   0.80118   1.02758
   88  C   1.05898   0.80021   1.05681   0.96790
   89  C   1.05718   1.06736   0.96862   0.79247
   90  C   1.06354   0.94989   0.79250   1.00613
   91  C   1.03467   1.24638   1.03299   0.80159
   92  C   1.03798   0.81236   1.02222   1.21353
   93  C   1.04512   1.00504   1.15765   0.79368
   94  C   1.05372   0.81249   0.97965   1.12703
   95  C   1.04970   0.79136   0.99289   1.11948
   96  C   1.06313   0.94744   0.79274   1.00581
   97  C   1.07654   0.92586   0.90854   0.96285
   98  C   1.06731   0.95162   0.94204   0.93898
   99  C   1.06977   0.94915   0.97229   0.97082
  100  C   1.06685   0.94567   0.97396   0.97221
  101  C   1.07028   0.93497   0.95185   0.95063
  102  C   1.06644   0.97345   0.96640   0.94873
  103  C   1.07013   0.94524   0.94682   0.95111
  104  C   1.07108   0.94762   0.93616   0.94325
  105  C   1.07007   0.92992   0.94258   0.94358
  106  C   1.07595   0.93103   0.90179   0.94766
  107  C   1.07669   0.89885   0.92636   0.95240
  108  C   1.06882   0.94633   0.94089   0.95344
  109  C   1.07308   0.94223   0.94420   0.92581
  110  C   1.06548   0.94997   0.96988   0.96089
  111  C   1.07850   0.91383   0.93088   0.96563
  112  C   1.06036   0.98133   1.00623   0.95235
  113  C   1.07113   0.96316   0.95015   0.96584
  114  C   1.07547   0.96023   0.95772   0.94871
  115  C   1.07228   0.90684   0.94815   0.92517
  116  C   1.06617   0.94846   0.94889   0.94689
  117  C   1.07583   0.95154   0.89302   0.91827
  118  C   1.06734   0.97737   0.94620   0.96982
  119  C   1.07816   0.92819   0.95940   0.90538
  120  C   1.07582   0.94536   0.92519   0.89823
  121  C   1.06771   0.97469   1.01799   1.00429
  122  C   1.05987   1.07195   0.99080   1.01868
  123  C   1.06490   1.01332   1.01412   0.96925
  124  C   1.06507   1.01681   0.96902   1.01244
  125  C   1.06275   1.00077   0.99634   0.96606
  126  C   1.05904   1.01147   0.99072   1.06603
  127  C   1.06218   0.99885   1.02306   0.98938
  128  C   1.06592   0.96517   1.01496   1.00685
  129  C   1.06520   1.01626   0.97149   1.02107
  130  C   1.07111   0.95225   0.99342   0.91838
  131  C   1.07088   0.99624   0.95017   0.91907
  132  C   1.06341   1.02262   1.01010   0.97295
  133  C   1.06596   0.96770   0.99556   1.00957
  134  C   1.05654   1.07529   1.00122   1.00348
  135  C   1.07023   1.02081   0.97154   0.99159
  136  C   1.05369   1.00370   1.01957   1.12635
  137  C   1.06742   1.01669   0.99947   0.96451
  138  C   1.07202   0.93815   0.95428   1.00704
  139  C   1.06612   1.01508   1.01020   0.97250
  140  C   1.05950   0.98857   1.07516   1.01952
  141  C   1.06908   0.96906   1.00979   0.96189
  142  C   1.06611   0.96615   0.99759   1.00523
  143  C   1.07169   0.95734   0.94601   1.00897
  144  C   1.06911   0.96041   0.95908   1.00680
  145  C   1.06875   0.97673   0.97640   1.01262
  146  C   1.07653   0.93918   0.96599   0.94646
  147  C   1.03635   1.19223   1.02315   0.96478
  148  C   1.05477   1.10463   0.97634   1.00314
  149  C   1.06853   0.95260   0.97222   0.97222
  150  C   1.04580   0.99556   0.95189   1.11646
  151  C   1.04583   0.99500   1.11915   0.94747
  152  C   1.04316   0.97228   1.02139   1.16880
  153  C   1.05781   0.99415   0.97446   1.07967
  154  C   1.04547   0.96640   1.00040   1.12444
  155  C   1.04667   0.99944   0.97071   1.11689
  156  C   1.06796   0.99982   0.96576   0.97364
  157  C   1.03698   0.96252   1.18144   1.01814
  158  C   1.05239   1.07837   0.98404   0.94276
  159  C   1.06597   0.98466   0.97865   1.03584
  160  C   1.06404   0.95299   0.95592   0.99435
  161  C   1.03992   1.02703   1.18806   0.97199
  162  C   1.03988   1.17125   0.97115   1.01852
  163  C   1.06178   0.98374   1.04897   0.97385
  164  C   1.07832   0.96927   0.92366   0.93936
  165  C   1.05217   1.10500   1.00131   0.97381
  166  C   1.05613   0.97452   1.08916   0.99655
  167  C   1.04922   0.97511   1.12568   1.00916
  168  C   1.03949   1.16388   0.96680   1.01271
  169  C   1.04406   1.01462   1.08514   0.97507
  170  C   1.04066   0.98503   1.01326   1.10506
  171  C   1.04550   0.96936   1.08214   1.02424
  172  C   1.04783   0.97339   1.00069   1.05233
  173  C   1.04834   1.04094   0.97790   0.98698
  174  C   1.04873   1.05979   1.02037   0.97001
  175  C   1.04869   1.05003   0.97163   1.01209
  176  C   1.04047   1.02059   1.11090   0.98034
  177  C   1.03876   1.12286   1.02211   0.98364
  178  C   1.05218   1.00416   1.02492   0.96574
  179  C   1.05099   1.03245   1.00240   0.96825
  180  C   1.04387   0.98238   1.07571   0.99830
  181  C   1.04387   1.02742   0.97376   1.09515
  182  C   1.04712   0.97652   1.04861   1.00050
  183  C   1.04419   1.08190   1.01437   0.97221
  184  C   1.04862   1.01438   1.05686   0.97402
  185  C   1.04477   1.08222   0.97147   1.01862
  186  C   1.04859   0.96442   1.00843   1.04770
  187  C   1.04242   1.10006   0.97963   1.01939
  188  C   1.04039   1.01393   0.98733   1.10848
  189  C   1.04533   0.97496   1.08080   1.01908
  190  C   1.05637   0.98761   0.96222   0.99079
  191  C   1.04721   1.00822   0.96972   1.05785
  192  C   1.04668   0.97149   1.02404   1.07498
  193  C   1.06791   0.97874   0.85042   1.03559
  194  C   1.06881   0.99060   0.97102   0.83626
  195  C   1.07742   0.95496   0.82849   0.97489
  196  C   1.06833   1.00556   0.97564   0.84544
  197  C   1.06547   0.82877   0.98650   0.97066
  198  C   1.07712   0.81940   0.96489   0.92347
  199  C   1.07235   0.82932   0.94197   0.95941
  200  C   1.07347   0.97997   0.84309   0.99932
  201  C   1.06919   0.84704   0.97761   1.01407
  202  C   1.06730   0.97294   0.83828   1.00919
  203  C   1.06854   0.84012   0.97665   1.01556
  204  C   1.06579   0.99720   0.83681   0.97189
  205  C   1.07697   0.97282   0.95155   0.82935
  206  C   1.07197   0.94468   0.82742   0.95896
  207  C   1.06938   0.85100   0.97953   1.03141
  208  C   1.07581   0.96456   0.81294   0.91988
  209  C   1.07494   0.84065   0.99052   0.97964
  210  C   1.07281   0.99628   0.97765   0.83834
  211  C   1.06783   0.85133   1.03287   0.97836
  212  C   1.06804   0.97007   0.98068   0.83175
  213  C   1.06968   1.03791   0.85252   0.98137
  214  C   1.06617   0.97186   1.00233   0.84496
  215  C   1.07053   0.98139   1.03499   0.85175
  216  C   1.07523   0.97316   0.97579   0.83546
  217  C   1.06117   0.93838   0.95580   0.96648
  218  C   1.05098   1.07131   0.94111   0.97635
  219  C   1.04338   1.08714   0.97150   0.92844
  220  C   1.06646   0.91205   0.94734   0.93873
  221  C   1.05009   0.98293   1.09475   0.94271
  222  C   1.03092   0.99450   0.93075   1.20081
  223  C   1.02874   0.99003   1.19829   0.93550
  224  C   1.05986   0.93490   0.94491   0.95105
  225  C   1.06439   0.94290   0.94320   0.93026
  226  C   1.04685   0.93662   0.97237   1.07456
  227  C   1.05031   0.97128   0.93252   1.05289
  228  C   1.05891   1.00582   0.96108   0.95038
  229  C   1.04032   0.92877   1.11330   0.97671
  230  C   1.02968   1.19824   0.99166   0.93740
  231  C   1.06224   0.95126   0.93879   0.95202
  232  C   1.03208   0.93483   1.00354   1.22530
  233  C   1.05599   0.95027   0.97984   0.93238
  234  C   1.04826   1.05218   0.92897   0.96825
  235  C   1.06293   0.94865   0.94623   0.94023
  236  C   1.04989   0.94204   1.09111   0.98111
  237  C   1.06192   0.94627   0.94852   0.93449
  238  C   1.06452   0.95054   0.93236   0.94268
  239  C   1.06007   0.93277   0.95875   0.95112
  240  C   1.04508   1.08053   0.92869   0.97251
  241  C   1.07932   0.92246   0.95191   0.91334
  242  C   1.08133   0.88572   0.89473   0.94439
  243  C   1.06790   0.96169   0.94972   0.96160
  244  C   1.06758   0.96707   0.95602   0.94660
  245  C   1.04380   0.96253   1.07563   1.03096
  246  C   1.07143   0.95106   0.93272   0.92442
  247  C   1.06054   0.96369   0.97261   0.97248
  248  C   1.07224   0.94186   0.94667   0.94363
  249  C   1.07591   0.94409   0.92314   0.92385
  250  C   1.03943   1.06548   0.97238   1.09755
  251  C   1.04136   0.97349   1.06542   1.09813
  252  C   1.06347   0.97870   0.94933   0.95875
  253  C   1.06310   0.97226   0.97641   0.95477
  254  C   1.06858   0.92964   0.96075   0.93822
  255  C   1.08088   0.95050   0.92483   0.91259
  256  C   1.08083   0.89602   0.94290   0.88246
  257  C   1.07251   0.94772   0.94907   0.95094
  258  C   1.05531   1.03798   1.02482   0.96374
  259  C   1.07639   0.94854   0.91868   0.92257
  260  C   1.07867   0.90288   0.90089   0.94212
  261  C   1.06712   0.97218   0.95840   0.96814
  262  C   1.05599   0.99093   1.01511   0.95234
  263  C   1.06333   0.99523   1.00249   0.96356
  264  C   1.05757   1.01104   0.99915   0.96117
  265  C   1.06707   1.04978   1.01350   1.17220
  266  C   1.07693   1.08501   1.04637   0.99144
  267  C   1.07671   1.03105   0.98993   1.04149
  268  C   1.05864   1.22955   1.04609   1.03272
  269  C   1.08671   0.98195   1.00268   1.04501
  270  C   1.08836   0.96564   1.03739   0.94170
  271  C   1.08407   0.97292   0.99201   1.03798
  272  C   1.06024   1.04693   1.02185   1.18267
  273  C   1.05933   1.02734   1.04743   1.22017
  274  C   1.08222   1.04269   0.98988   1.02828
  275  C   1.08157   0.99041   1.04545   1.03117
  276  C   1.07337   1.12145   1.01049   1.04268
  277  C   1.07997   1.03993   1.00314   0.98389
  278  C   1.08274   1.00896   0.97280   1.03861
  279  C   1.06409   1.01844   1.04930   1.19174
  280  C   1.09141   1.03853   0.95912   0.92859
  281  C   1.06392   1.01535   1.14641   1.04585
  282  C   1.07822   1.04133   1.04460   0.99301
  283  C   1.06343   1.02145   1.19363   1.04878
  284  C   1.08140   1.04596   1.04761   0.98681
  285  C   1.06408   1.17372   1.01909   1.04932
  286  C   1.06209   1.04515   1.20782   1.02864
  287  C   1.06683   1.04881   1.14921   1.01526
  288  C   1.07805   1.02530   1.04241   0.98878
  289  H   0.83040
  290  H   0.83389
  291  H   0.82599
  292  H   0.81572
  293  H   0.82531
  294  H   0.83104
  295  H   0.82848
  296  H   0.81821
  297  H   0.81650
  298  H   0.82093
  299  H   0.82522
  300  H   0.81635
  301  H   0.82300
  302  H   0.83454
  303  H   0.82966
  304  H   0.83924
  305  H   0.82295
  306  H   0.82596
  307  H   0.82170
  308  H   0.83036
  309  H   0.82264
  310  H   0.81453
  311  H   0.82385
  312  H   0.82151
  313  H   0.83062
  314  H   0.84474
  315  H   0.82088
  316  H   0.81184
  317  H   0.83520
  318  H   0.82870
  319  H   0.82463
  320  H   0.81804
  321  H   0.82192
  322  H   0.82169
  323  H   0.82706
  324  H   0.82383
  325  H   0.82177
  326  H   0.83151
  327  H   0.82563
  328  H   0.84361
  329  H   0.81690
  330  H   0.81967
  331  H   0.82824
  332  H   0.84463
  333  H   0.82608
  334  H   0.80994
  335  H   0.82213
  336  H   0.82409
  337  H   0.81241
  338  H   0.81861
  339  H   0.83380
  340  H   0.81808
  341  H   0.82392
  342  H   0.83516
  343  H   0.83873
  344  H   0.82306
  345  H   0.81723
  346  H   0.82795
  347  H   0.82645
  348  H   0.81751
  349  H   0.83525
  350  H   0.83308
  351  H   0.81199
  352  H   0.82939
  353  H   0.82629
  354  H   0.82939
  355  H   0.81672
  356  H   0.82138
  357  H   0.81861
  358  H   0.82051
  359  H   0.81946
  360  H   0.83256

 **********************
 *                    *
 * JOB ENDED NORMALLY *
 *                    *
 **********************



 TOTAL JOB TIME:           437.96 SECONDS

 == MOPAC DONE ==
