 *******************************************************************************
 **                                                                           **
 **                              MOPAC v22.1.0                                **
 **                                                                           **
 *******************************************************************************
 **          Digital Object Identifier (DOI): 10.5281/zenodo.6511958          **
 **    Visit the DOI location for information on how to cite this program.    **
 *******************************************************************************

                              PM7 CALCULATION RESULTS

 *******************************************************************************
 *  CALCULATION DONE:                                Fri Dec 22 13:06:17 2023  *
 *  PM7        - The PM7 Hamiltonian to be used
 *  NOOPT      - DO NOT OPTIMIZE ANY COORDINATES
 *
 *
 *
 *                 CHARGE ON SYSTEM = 0
 *
 *
 *
 *  T=         - A TIME OF 172800.0 SECONDS REQUESTED
 *  DUMP=N     - RESTART FILE WRITTEN EVERY 7200.0 SECONDS REQUESTED
 *******************************************************************************
PM7 CHARGE=0 NOOPT


   ATOM   CHEMICAL          X               Y               Z
  NUMBER   SYMBOL      (ANGSTROMS)     (ANGSTROMS)     (ANGSTROMS)

     1       C         17.76606700     14.46125600     21.22974000   
     2       C          2.84026000      5.73106700     21.64374400   
     3       C          3.17724000     15.62624400     11.74856700   
     4       C         21.22974000     17.76606700     14.46125600   
     5       C         21.64374400      2.84026000      5.73106700   
     6       C          3.59124400      0.28643300     20.89276000   
     7       C         14.46125600     21.22974000     17.76606700   
     8       C          5.73106700     21.64374400      2.84026000   
     9       C         15.62624400     11.74856700      3.17724000   
    10       C          6.30393300      2.42625600     14.87526000   
    11       C         20.47875600     12.32143300     15.21224000   
    12       C         20.89276000      3.59124400      0.28643300   
    13       C         12.32143300     15.21224000     20.47875600   
    14       C         15.21224000     20.47875600     12.32143300   
    15       C          8.44375600     23.78356700      8.85776000   
    16       C         18.33893300      9.60874400      9.19474000   
    17       C          9.60874400      9.19474000     18.33893300   
    18       C         14.87526000      6.30393300      2.42625600   
    19       C          2.42625600     14.87526000      6.30393300   
    20       C         23.78356700      8.85776000      8.44375600   
    21       C          8.85776000      8.44375600     23.78356700   
    22       C         11.74856700      3.17724000     15.62624400   
    23       C          0.28643300     20.89276000      3.59124400   
    24       C          9.19474000     18.33893300      9.60874400   
    25       C         18.94068300     14.63696700     20.42098800   
    26       C          3.64901200      6.90568300     21.46803300   
    27       C          2.36848800     15.45053300     12.92318300   
    28       C         20.42098800     18.94068300     14.63696700   
    29       C         21.46803300      3.64901200      6.90568300   
    30       C          3.41553300     23.18181700     21.70151200   
    31       C         14.63696700     20.42098800     18.94068300   
    32       C          6.90568300     21.46803300      3.64901200   
    33       C         15.45053300     12.92318300      2.36848800   
    34       C          5.12931700      2.60196700     15.68401200   
    35       C         20.65446700     11.14681700     14.40348800   
    36       C         21.70151200      3.41553300     23.18181700   
    37       C         11.14681700     14.40348800     20.65446700   
    38       C         14.40348800     20.65446700     11.14681700   
    39       C          8.61946700      0.88818300      9.66651200   
    40       C         17.16431700      9.43303300      8.38598800   
    41       C          9.43303300      8.38598800     17.16431700   
    42       C         15.68401200      5.12931700      2.60196700   
    43       C          2.60196700     15.68401200      5.12931700   
    44       C          0.88818300      9.66651200      8.61946700   
    45       C          9.66651200      8.61946700      0.88818300   
    46       C         12.92318300      2.36848800     15.45053300   
    47       C         23.18181700     21.70151200      3.41553300   
    48       C          8.38598800     17.16431700      9.43303300   
    49       C         15.55884800     15.38313700     22.14199300   
    50       C          1.92800700      3.52384800     20.72186300   
    51       C          4.08949300     14.70436300      9.54134800   
    52       C         22.14199300     15.55884800     15.38313700   
    53       C         20.72186300      1.92800700      3.52384800   
    54       C          2.66936300      2.49365200     19.98050700   
    55       C         15.38313700     22.14199300     15.55884800   
    56       C          3.52384800     20.72186300      1.92800700   
    57       C         14.70436300      9.54134800      4.08949300   
    58       C          8.51115200      3.34813700     13.96300700   
    59       C         21.40063700     14.52865200     16.12449300   
    60       C         19.98050700      2.66936300      2.49365200   
    61       C         14.52865200     16.12449300     21.40063700   
    62       C         16.12449300     21.40063700     14.52865200   
    63       C          9.36563700     21.57634800      7.94550700   
    64       C         20.54615200      8.68686300     10.10699300   
    65       C          8.68686300     10.10699300     20.54615200   
    66       C         13.96300700      8.51115200      3.34813700   
    67       C          3.34813700     13.96300700      8.51115200   
    68       C         21.57634800      7.94550700      9.36563700   
    69       C          7.94550700      9.36563700     21.57634800   
    70       C          9.54134800      4.08949300     14.70436300   
    71       C          2.49365200     19.98050700      2.66936300   
    72       C         10.10699300     20.54615200      8.68686300   
    73       C         19.21748800     19.98050700     17.98510400   
    74       C          6.08489600      7.18248800     16.12449300   
    75       C         24.00260400     10.10699300     13.19998800   
    76       C         17.98510400     19.21748800     19.98050700   
    77       C         16.12449300      6.08489600      7.18248800   
    78       C         22.14199300     22.90501200      0.06739600   
    79       C         19.98050700     17.98510400     19.21748800   
    80       C          7.18248800     16.12449300      6.08489600   
    81       C         10.10699300     13.19998800     24.00260400   
    82       C          4.85251200      7.94550700     18.11989600   
    83       C          1.92800700     10.87001200     11.96760400   
    84       C          0.06739600     22.14199300     22.90501200   
    85       C         10.87001200     11.96760400      1.92800700   
    86       C         11.96760400      1.92800700     10.87001200   
    87       C         13.96300700      1.16498800     12.10239600   
    88       C         16.88751200      4.08949300      5.95010400   
    89       C          4.08949300      5.95010400     16.88751200   
    90       C         18.11989600      4.85251200      7.94550700   
    91       C          7.94550700     18.11989600      4.85251200   
    92       C          1.16498800     12.10239600     13.96300700   
    93       C         12.10239600     13.96300700      1.16498800   
    94       C         13.19998800     24.00260400     10.10699300   
    95       C         22.90501200      0.06739600     22.14199300   
    96       C          5.95010400     16.88751200      4.08949300   
    97       C         18.45687600     16.94528000     20.56300100   
    98       C          3.50699900      6.42187600     19.15972000   
    99       C          2.51050100     13.14222000     12.43937600   
   100       C         20.56300100     18.45687600     16.94528000   
   101       C         19.15972000      3.50699900      6.42187600   
   102       C          1.10722000     23.66562400     21.55949900   
   103       C         16.94528000     20.56300100     18.45687600   
   104       C          6.42187600     19.15972000      3.50699900   
   105       C         13.14222000     12.43937600      2.51050100   
   106       C          5.61312400      4.91028000     15.54199900   
   107       C         22.96278000     11.63062400     14.54550100   
   108       C         21.55949900      1.10722000     23.66562400   
   109       C         11.63062400     14.54550100     22.96278000   
   110       C         14.54550100     22.96278000     11.63062400   
   111       C         10.92778000      0.40437600      9.52449900   
   112       C         17.64812400      7.12472000      8.52800100   
   113       C          7.12472000      8.52800100     17.64812400   
   114       C         15.54199900      5.61312400      4.91028000   
   115       C          4.91028000     15.54199900      5.61312400   
   116       C          0.40437600      9.52449900     10.92778000   
   117       C          9.52449900     10.92778000      0.40437600   
   118       C         12.43937600      2.51050100     13.14222000   
   119       C         23.66562400     21.55949900      1.10722000   
   120       C          8.52800100     17.64812400      7.12472000   
   121       C         16.54812500     19.02011400     20.18991600   
   122       C          3.88008400      4.51312500     17.08488600   
   123       C          2.13741600     11.06738600     10.53062500   
   124       C         20.18991600     16.54812500     19.02011400   
   125       C         17.08488600      3.88008400      4.51312500   
   126       C         23.10238600      1.50437500     21.93258400   
   127       C         19.02011400     20.18991600     16.54812500   
   128       C          4.51312500     17.08488600      3.88008400   
   129       C         11.06738600     10.53062500      2.13741600   
   130       C          7.52187500      6.98511400     15.91508400   
   131       C          0.96761400     13.53937500     14.17241600   
   132       C         21.93258400     23.10238600      1.50437500   
   133       C         13.53937500     14.17241600      0.96761400   
   134       C         14.17241600      0.96761400     13.53937500   
   135       C         13.00261400     22.56562500      9.89758400   
   136       C         19.55687500      5.04988600      8.15491600   
   137       C          5.04988600      8.15491600     19.55687500   
   138       C         15.91508400      7.52187500      6.98511400   
   139       C          6.98511400     15.91508400      7.52187500   
   140       C         22.56562500      9.89758400     13.00261400   
   141       C          9.89758400     13.00261400     22.56562500   
   142       C         10.53062500      2.13741600     11.06738600   
   143       C          1.50437500     21.93258400     23.10238600   
   144       C          8.15491600     19.55687500      5.04988600   
   145       C         23.22514300     21.99035200     23.90873100   
   146       C          0.16126900     11.19014300     14.11464800   
   147       C          5.85623100      8.09714800     17.20764300   
   148       C         23.90873100     23.22514300     21.99035200   
   149       C         14.11464800      0.16126900     11.19014300   
   150       C         20.13214800     18.89735700     18.21376900   
   151       C         21.99035200     23.90873100     23.22514300   
   152       C         11.19014300     14.11464800      0.16126900   
   153       C          8.09714800     17.20764300      5.85623100   
   154       C          0.84485700      9.95535200     12.19626900   
   155       C          3.93785200      6.86235700     17.89123100   
   156       C         18.21376900     20.13214800     18.89735700   
   157       C          6.86235700     17.89123100      3.93785200   
   158       C         17.89123100      3.93785200      6.86235700   
   159       C         15.97285200      5.17264300      6.17876900   
   160       C         12.87985700      2.07964800     11.87373100   
   161       C          2.07964800     11.87373100     12.87985700   
   162       C         12.19626900      0.84485700      9.95535200   
   163       C          9.95535200     12.19626900      0.84485700   
   164       C          5.17264300      6.17876900     15.97285200   
   165       C          6.17876900     15.97285200      5.17264300   
   166       C         17.20764300      5.85623100      8.09714800   
   167       C         18.89735700     18.21376900     20.13214800   
   168       C         11.87373100     12.87985700      2.07964800   
   169       C         17.16672400     16.79123200     21.00829600   
   170       C          3.06170400      5.13172400     19.31376800   
   171       C          2.95579600     13.29626800     11.14922400   
   172       C         21.00829600     17.16672400     16.79123200   
   173       C         19.31376800      3.06170400      5.13172400   
   174       C          1.26126800      0.88577600     21.11420400   
   175       C         16.79123200     21.00829600     17.16672400   
   176       C          5.13172400     19.31376800      3.06170400   
   177       C         13.29626800     11.14922400      2.95579600   
   178       C          6.90327600      4.75623200     15.09670400   
   179       C         22.80873200     12.92077600     14.99079600   
   180       C         21.11420400      1.26126800      0.88577600   
   181       C         12.92077600     14.99079600     22.80873200   
   182       C         14.99079600     22.80873200     12.92077600   
   183       C         10.77373200     23.18422400      9.07920400   
   184       C         18.93827600      7.27876800      8.97329600   
   185       C          7.27876800      8.97329600     18.93827600   
   186       C         15.09670400      6.90327600      4.75623200   
   187       C          4.75623200     15.09670400      6.90327600   
   188       C         23.18422400      9.07920400     10.77373200   
   189       C          9.07920400     10.77373200     23.18422400   
   190       C         11.14922400      2.95579600     13.29626800   
   191       C          0.88577600     21.11420400      1.26126800   
   192       C          8.97329600     18.93827600      7.27876800   
   193       C         16.16300500     17.81420700     20.72908400   
   194       C          3.34091600      4.12800500     18.29079300   
   195       C          2.67658400     12.27329300     10.14550500   
   196       C         20.72908400     16.16300500     17.81420700   
   197       C         18.29079300      3.34091600      4.12800500   
   198       C          0.23829300      1.88949500     21.39341600   
   199       C         17.81420700     20.72908400     16.16300500   
   200       C          4.12800500     18.29079300      3.34091600   
   201       C         12.27329300     10.14550500      2.67658400   
   202       C          7.90699500      5.77920700     15.37591600   
   203       C         23.83170700     13.92449500     14.71158400   
   204       C         21.39341600      0.23829300      1.88949500   
   205       C         13.92449500     14.71158400     23.83170700   
   206       C         14.71158400     23.83170700     13.92449500   
   207       C         11.79670700     22.18050500      9.35841600   
   208       C         19.94199500      6.25579300      8.69408400   
   209       C          6.25579300      8.69408400     19.94199500   
   210       C         15.37591600      7.90699500      5.77920700   
   211       C          5.77920700     15.37591600      7.90699500   
   212       C         22.18050500      9.35841600     11.79670700   
   213       C          9.35841600     11.79670700     22.18050500   
   214       C         10.14550500      2.67658400     12.27329300   
   215       C          1.88949500     21.39341600      0.23829300   
   216       C          8.69408400     19.94199500      6.25579300   
   217       C         19.29932600     15.89101400     20.03346100   
   218       C          4.03653900      7.26432600     20.21398600   
   219       C          1.98096100     14.19648600     13.28182600   
   220       C         20.03346100     19.29932600     15.89101400   
   221       C         20.21398600      4.03653900      7.26432600   
   222       C          2.16148600     22.82317400     22.08903900   
   223       C         15.89101400     20.03346100     19.29932600   
   224       C          7.26432600     20.21398600      4.03653900   
   225       C         14.19648600     13.28182600      1.98096100   
   226       C          4.77067400      3.85601400     16.07153900   
   227       C         21.90851400     10.78817400     14.01596100   
   228       C         22.08903900      2.16148600     22.82317400   
   229       C         10.78817400     14.01596100     21.90851400   
   230       C         14.01596100     21.90851400     10.78817400   
   231       C          9.87351400      1.24682600     10.05403900   
   232       C         16.80567400      8.17898600      7.99846100   
   233       C          8.17898600      7.99846100     16.80567400   
   234       C         16.07153900      4.77067400      3.85601400   
   235       C          3.85601400     16.07153900      4.77067400   
   236       C          1.24682600     10.05403900      9.87351400   
   237       C         10.05403900      9.87351400      1.24682600   
   238       C         13.28182600      1.98096100     14.19648600   
   239       C         22.82317400     22.08903900      2.16148600   
   240       C          7.99846100     16.80567400      8.17898600   
   241       C         14.79342200     17.30392300     20.81332900   
   242       C          3.25667100      2.75842200     18.80107700   
   243       C          2.76082900     12.78357700      8.77592200   
   244       C         20.81332900     14.79342200     17.30392300   
   245       C         18.80107700      3.25667100      2.75842200   
   246       C          0.74857700      3.25907800     21.30917100   
   247       C         17.30392300     20.81332900     14.79342200   
   248       C          2.75842200     18.80107700      3.25667100   
   249       C         12.78357700      8.77592200      2.76082900   
   250       C          9.27657800      5.26892300     15.29167100   
   251       C         23.32142300     15.29407800     14.79582900   
   252       C         21.30917100      0.74857700      3.25907800   
   253       C         15.29407800     14.79582900     23.32142300   
   254       C         14.79582900     23.32142300     15.29407800   
   255       C         11.28642300     20.81092200      9.27417100   
   256       C         21.31157800      6.76607700      8.77832900   
   257       C          6.76607700      8.77832900     21.31157800   
   258       C         15.29167100      9.27657800      5.26892300   
   259       C          5.26892300     15.29167100      9.27657800   
   260       C         20.81092200      9.27417100     11.28642300   
   261       C          9.27417100     11.28642300     20.81092200   
   262       C          8.77592200      2.76082900     12.78357700   
   263       C          3.25907800     21.30917100      0.74857700   
   264       C          8.77832900     21.31157800      6.76607700   
   265       C         16.88029100     15.47701000     21.48728900   
   266       C          2.58271100      4.84529100     20.62799000   
   267       C          3.43478900     14.61049000     10.86279100   
   268       C         21.48728900     16.88029100     15.47701000   
   269       C         20.62799000      2.58271100      4.84529100   
   270       C          2.57549000      1.17220900     20.63521100   
   271       C         15.47701000     21.48728900     16.88029100   
   272       C          4.84529100     20.62799000      2.58271100   
   273       C         14.61049000     10.86279100      3.43478900   
   274       C          7.18970900      3.44201000     14.61771100   
   275       C         21.49451000     13.20720900     15.46978900   
   276       C         20.63521100      2.57549000      1.17220900   
   277       C         13.20720900     15.46978900     21.49451000   
   278       C         15.46978900     21.49451000     13.20720900   
   279       C          9.45951000     22.89779100      8.60021100   
   280       C         19.22470900      8.59299000      9.45228900   
   281       C          8.59299000      9.45228900     19.22470900   
   282       C         14.61771100      7.18970900      3.44201000   
   283       C          3.44201000     14.61771100      7.18970900   
   284       C         22.89779100      8.60021100      9.45951000   
   285       B          8.60021100      9.45951000     22.89779100   
   286       B         10.86279100      3.43478900     14.61049000   
   287       B          1.17220900     20.63521100      2.57549000   
   288       B          9.45228900     19.22470900      8.59299000   
   289       H         13.45031600     21.59801100     17.55184400   
   290       H          6.51815600      1.41531600     14.50698900   
   291       H         23.56934400      8.48948900      7.43281600   
   292       H         17.55184400     13.45031600     21.59801100   
   293       H         14.50698900      6.51815600      1.41531600   
   294       H         20.52448900      4.60218400      0.50065600   
   295       H         21.59801100     17.55184400     13.45031600   
   296       H          1.41531600     14.50698900      6.51815600   
   297       H          8.48948900      7.43281600     23.56934400   
   298       H         10.61968400      9.56301100     18.55315600   
   299       H          3.54551100     16.63718400     11.53434400   
   300       H          0.50065600     20.52448900      4.60218400   
   301       H         16.63718400     11.53434400      3.54551100   
   302       H         11.53434400      3.54551100     16.63718400   
   303       H         15.58051100     19.46781600     12.53565600   
   304       H         22.65468400      2.47198900      5.51684400   
   305       H          2.47198900      5.51684400     22.65468400   
   306       H         18.55315600     10.61968400      9.56301100   
   307       H          9.56301100     18.55315600     10.61968400   
   308       H         19.46781600     12.53565600     15.58051100   
   309       H         12.53565600     15.58051100     19.46781600   
   310       H          7.43281600     23.56934400      8.48948900   
   311       H          4.60218400      0.50065600     20.52448900   
   312       H          5.51684400     22.65468400      2.47198900   
   313       H         13.74878400     20.12733400     19.49910700   
   314       H          4.57089300      1.71378400     15.97766600   
   315       H          1.44660700      9.96016600      7.73128400   
   316       H         19.49910700     13.74878400     20.12733400   
   317       H         15.97766600      4.57089300      1.71378400   
   318       H         21.99516600      4.30371600     22.62339300   
   319       H         20.12733400     19.49910700     13.74878400   
   320       H          1.71378400     15.97766600      4.57089300   
   321       H          9.96016600      7.73128400      1.44660700   
   322       H         10.32121600      8.09233400     16.60589300   
   323       H          2.07483400     16.33871600     13.48160700   
   324       H         22.62339300     21.99516600      4.30371600   
   325       H         16.33871600     13.48160700      2.07483400   
   326       H         13.48160700      2.07483400     16.33871600   
   327       H         14.10983400     19.76628400     10.58839300   
   328       H         22.35621600      3.94266600      7.46410700   
   329       H          3.94266600      7.46410700     22.35621600   
   330       H         16.60589300     10.32121600      8.09233400   
   331       H          8.09233400     16.60589300     10.32121600   
   332       H         19.76628400     10.58839300     14.10983400   
   333       H         10.58839300     14.10983400     19.76628400   
   334       H          7.73128400      1.44660700      9.96016600   
   335       H          4.30371600     22.62339300     21.99516600   
   336       H          7.46410700     22.35621600      3.94266600   
   337       H         14.00392600     17.89845200     20.33674300   
   338       H          3.73325700      1.96892600     18.20654800   
   339       H          2.28424300     12.18904800      7.98642600   
   340       H         20.33674300     14.00392600     17.89845200   
   341       H         18.20654800      3.73325700      1.96892600   
   342       H          0.15404800      4.04857400     21.78575700   
   343       H         17.89845200     20.33674300     14.00392600   
   344       H          1.96892600     18.20654800      3.73325700   
   345       H         12.18904800      7.98642600      2.28424300   
   346       H         10.06607400      5.86345200     15.76825700   
   347       H         23.91595200     16.08357400     14.31924300   
   348       H         21.78575700      0.15404800      4.04857400   
   349       H         16.08357400     14.31924300     23.91595200   
   350       H         14.31924300     23.91595200     16.08357400   
   351       H         11.88095200     20.02142600      9.75075700   
   352       H         22.10107400      6.17154800      8.30174300   
   353       H          6.17154800      8.30174300     22.10107400   
   354       H         15.76825700     10.06607400      5.86345200   
   355       H          5.86345200     15.76825700     10.06607400   
   356       H         20.02142600      9.75075700     11.88095200   
   357       H          9.75075700     11.88095200     20.02142600   
   358       H          7.98642600      2.28424300     12.18904800   
   359       H          4.04857400     21.78575700      0.15404800   
   360       H          8.30174300     22.10107400      6.17154800   
   361      Tv         24.07000000      0.00000000      0.00000000   
   362      Tv          0.00000000     24.07000000      0.00000000   
   363      Tv          0.00000000      0.00000000     24.07000000   


                   THE SYSTEM IS A SOLID


                UNIT CELL TRANSLATION VECTORS

              X                Y              Z
    T1 =    24.0700000      0.0000000      0.0000000
    T2 =     0.0000000     24.0700000      0.0000000
    T3 =     0.0000000      0.0000000     24.0700000


          CARTESIAN COORDINATES 

    NO.       ATOM           X           Y           Z

     1         C         17.7661     14.4613     21.2297
     2         C          2.8403      5.7311     21.6437
     3         C          3.1772     15.6262     11.7486
     4         C         21.2297     17.7661     14.4613
     5         C         21.6437      2.8403      5.7311
     6         C          3.5912      0.2864     20.8928
     7         C         14.4613     21.2297     17.7661
     8         C          5.7311     21.6437      2.8403
     9         C         15.6262     11.7486      3.1772
    10         C          6.3039      2.4263     14.8753
    11         C         20.4788     12.3214     15.2122
    12         C         20.8928      3.5912      0.2864
    13         C         12.3214     15.2122     20.4788
    14         C         15.2122     20.4788     12.3214
    15         C          8.4438     23.7836      8.8578
    16         C         18.3389      9.6087      9.1947
    17         C          9.6087      9.1947     18.3389
    18         C         14.8753      6.3039      2.4263
    19         C          2.4263     14.8753      6.3039
    20         C         23.7836      8.8578      8.4438
    21         C          8.8578      8.4438     23.7836
    22         C         11.7486      3.1772     15.6262
    23         C          0.2864     20.8928      3.5912
    24         C          9.1947     18.3389      9.6087
    25         C         18.9407     14.6370     20.4210
    26         C          3.6490      6.9057     21.4680
    27         C          2.3685     15.4505     12.9232
    28         C         20.4210     18.9407     14.6370
    29         C         21.4680      3.6490      6.9057
    30         C          3.4155     23.1818     21.7015
    31         C         14.6370     20.4210     18.9407
    32         C          6.9057     21.4680      3.6490
    33         C         15.4505     12.9232      2.3685
    34         C          5.1293      2.6020     15.6840
    35         C         20.6545     11.1468     14.4035
    36         C         21.7015      3.4155     23.1818
    37         C         11.1468     14.4035     20.6545
    38         C         14.4035     20.6545     11.1468
    39         C          8.6195      0.8882      9.6665
    40         C         17.1643      9.4330      8.3860
    41         C          9.4330      8.3860     17.1643
    42         C         15.6840      5.1293      2.6020
    43         C          2.6020     15.6840      5.1293
    44         C          0.8882      9.6665      8.6195
    45         C          9.6665      8.6195      0.8882
    46         C         12.9232      2.3685     15.4505
    47         C         23.1818     21.7015      3.4155
    48         C          8.3860     17.1643      9.4330
    49         C         15.5588     15.3831     22.1420
    50         C          1.9280      3.5238     20.7219
    51         C          4.0895     14.7044      9.5413
    52         C         22.1420     15.5588     15.3831
    53         C         20.7219      1.9280      3.5238
    54         C          2.6694      2.4937     19.9805
    55         C         15.3831     22.1420     15.5588
    56         C          3.5238     20.7219      1.9280
    57         C         14.7044      9.5413      4.0895
    58         C          8.5112      3.3481     13.9630
    59         C         21.4006     14.5287     16.1245
    60         C         19.9805      2.6694      2.4937
    61         C         14.5287     16.1245     21.4006
    62         C         16.1245     21.4006     14.5287
    63         C          9.3656     21.5763      7.9455
    64         C         20.5462      8.6869     10.1070
    65         C          8.6869     10.1070     20.5462
    66         C         13.9630      8.5112      3.3481
    67         C          3.3481     13.9630      8.5112
    68         C         21.5763      7.9455      9.3656
    69         C          7.9455      9.3656     21.5763
    70         C          9.5413      4.0895     14.7044
    71         C          2.4937     19.9805      2.6694
    72         C         10.1070     20.5462      8.6869
    73         C         19.2175     19.9805     17.9851
    74         C          6.0849      7.1825     16.1245
    75         C         24.0026     10.1070     13.2000
    76         C         17.9851     19.2175     19.9805
    77         C         16.1245      6.0849      7.1825
    78         C         22.1420     22.9050      0.0674
    79         C         19.9805     17.9851     19.2175
    80         C          7.1825     16.1245      6.0849
    81         C         10.1070     13.2000     24.0026
    82         C          4.8525      7.9455     18.1199
    83         C          1.9280     10.8700     11.9676
    84         C          0.0674     22.1420     22.9050
    85         C         10.8700     11.9676      1.9280
    86         C         11.9676      1.9280     10.8700
    87         C         13.9630      1.1650     12.1024
    88         C         16.8875      4.0895      5.9501
    89         C          4.0895      5.9501     16.8875
    90         C         18.1199      4.8525      7.9455
    91         C          7.9455     18.1199      4.8525
    92         C          1.1650     12.1024     13.9630
    93         C         12.1024     13.9630      1.1650
    94         C         13.2000     24.0026     10.1070
    95         C         22.9050      0.0674     22.1420
    96         C          5.9501     16.8875      4.0895
    97         C         18.4569     16.9453     20.5630
    98         C          3.5070      6.4219     19.1597
    99         C          2.5105     13.1422     12.4394
   100         C         20.5630     18.4569     16.9453
   101         C         19.1597      3.5070      6.4219
   102         C          1.1072     23.6656     21.5595
   103         C         16.9453     20.5630     18.4569
   104         C          6.4219     19.1597      3.5070
   105         C         13.1422     12.4394      2.5105
   106         C          5.6131      4.9103     15.5420
   107         C         22.9628     11.6306     14.5455
   108         C         21.5595      1.1072     23.6656
   109         C         11.6306     14.5455     22.9628
   110         C         14.5455     22.9628     11.6306
   111         C         10.9278      0.4044      9.5245
   112         C         17.6481      7.1247      8.5280
   113         C          7.1247      8.5280     17.6481
   114         C         15.5420      5.6131      4.9103
   115         C          4.9103     15.5420      5.6131
   116         C          0.4044      9.5245     10.9278
   117         C          9.5245     10.9278      0.4044
   118         C         12.4394      2.5105     13.1422
   119         C         23.6656     21.5595      1.1072
   120         C          8.5280     17.6481      7.1247
   121         C         16.5481     19.0201     20.1899
   122         C          3.8801      4.5131     17.0849
   123         C          2.1374     11.0674     10.5306
   124         C         20.1899     16.5481     19.0201
   125         C         17.0849      3.8801      4.5131
   126         C         23.1024      1.5044     21.9326
   127         C         19.0201     20.1899     16.5481
   128         C          4.5131     17.0849      3.8801
   129         C         11.0674     10.5306      2.1374
   130         C          7.5219      6.9851     15.9151
   131         C          0.9676     13.5394     14.1724
   132         C         21.9326     23.1024      1.5044
   133         C         13.5394     14.1724      0.9676
   134         C         14.1724      0.9676     13.5394
   135         C         13.0026     22.5656      9.8976
   136         C         19.5569      5.0499      8.1549
   137         C          5.0499      8.1549     19.5569
   138         C         15.9151      7.5219      6.9851
   139         C          6.9851     15.9151      7.5219
   140         C         22.5656      9.8976     13.0026
   141         C          9.8976     13.0026     22.5656
   142         C         10.5306      2.1374     11.0674
   143         C          1.5044     21.9326     23.1024
   144         C          8.1549     19.5569      5.0499
   145         C         23.2251     21.9904     23.9087
   146         C          0.1613     11.1901     14.1146
   147         C          5.8562      8.0971     17.2076
   148         C         23.9087     23.2251     21.9904
   149         C         14.1146      0.1613     11.1901
   150         C         20.1321     18.8974     18.2138
   151         C         21.9904     23.9087     23.2251
   152         C         11.1901     14.1146      0.1613
   153         C          8.0971     17.2076      5.8562
   154         C          0.8449      9.9554     12.1963
   155         C          3.9379      6.8624     17.8912
   156         C         18.2138     20.1321     18.8974
   157         C          6.8624     17.8912      3.9379
   158         C         17.8912      3.9379      6.8624
   159         C         15.9729      5.1726      6.1788
   160         C         12.8799      2.0796     11.8737
   161         C          2.0796     11.8737     12.8799
   162         C         12.1963      0.8449      9.9554
   163         C          9.9554     12.1963      0.8449
   164         C          5.1726      6.1788     15.9729
   165         C          6.1788     15.9729      5.1726
   166         C         17.2076      5.8562      8.0971
   167         C         18.8974     18.2138     20.1321
   168         C         11.8737     12.8799      2.0796
   169         C         17.1667     16.7912     21.0083
   170         C          3.0617      5.1317     19.3138
   171         C          2.9558     13.2963     11.1492
   172         C         21.0083     17.1667     16.7912
   173         C         19.3138      3.0617      5.1317
   174         C          1.2613      0.8858     21.1142
   175         C         16.7912     21.0083     17.1667
   176         C          5.1317     19.3138      3.0617
   177         C         13.2963     11.1492      2.9558
   178         C          6.9033      4.7562     15.0967
   179         C         22.8087     12.9208     14.9908
   180         C         21.1142      1.2613      0.8858
   181         C         12.9208     14.9908     22.8087
   182         C         14.9908     22.8087     12.9208
   183         C         10.7737     23.1842      9.0792
   184         C         18.9383      7.2788      8.9733
   185         C          7.2788      8.9733     18.9383
   186         C         15.0967      6.9033      4.7562
   187         C          4.7562     15.0967      6.9033
   188         C         23.1842      9.0792     10.7737
   189         C          9.0792     10.7737     23.1842
   190         C         11.1492      2.9558     13.2963
   191         C          0.8858     21.1142      1.2613
   192         C          8.9733     18.9383      7.2788
   193         C         16.1630     17.8142     20.7291
   194         C          3.3409      4.1280     18.2908
   195         C          2.6766     12.2733     10.1455
   196         C         20.7291     16.1630     17.8142
   197         C         18.2908      3.3409      4.1280
   198         C          0.2383      1.8895     21.3934
   199         C         17.8142     20.7291     16.1630
   200         C          4.1280     18.2908      3.3409
   201         C         12.2733     10.1455      2.6766
   202         C          7.9070      5.7792     15.3759
   203         C         23.8317     13.9245     14.7116
   204         C         21.3934      0.2383      1.8895
   205         C         13.9245     14.7116     23.8317
   206         C         14.7116     23.8317     13.9245
   207         C         11.7967     22.1805      9.3584
   208         C         19.9420      6.2558      8.6941
   209         C          6.2558      8.6941     19.9420
   210         C         15.3759      7.9070      5.7792
   211         C          5.7792     15.3759      7.9070
   212         C         22.1805      9.3584     11.7967
   213         C          9.3584     11.7967     22.1805
   214         C         10.1455      2.6766     12.2733
   215         C          1.8895     21.3934      0.2383
   216         C          8.6941     19.9420      6.2558
   217         C         19.2993     15.8910     20.0335
   218         C          4.0365      7.2643     20.2140
   219         C          1.9810     14.1965     13.2818
   220         C         20.0335     19.2993     15.8910
   221         C         20.2140      4.0365      7.2643
   222         C          2.1615     22.8232     22.0890
   223         C         15.8910     20.0335     19.2993
   224         C          7.2643     20.2140      4.0365
   225         C         14.1965     13.2818      1.9810
   226         C          4.7707      3.8560     16.0715
   227         C         21.9085     10.7882     14.0160
   228         C         22.0890      2.1615     22.8232
   229         C         10.7882     14.0160     21.9085
   230         C         14.0160     21.9085     10.7882
   231         C          9.8735      1.2468     10.0540
   232         C         16.8057      8.1790      7.9985
   233         C          8.1790      7.9985     16.8057
   234         C         16.0715      4.7707      3.8560
   235         C          3.8560     16.0715      4.7707
   236         C          1.2468     10.0540      9.8735
   237         C         10.0540      9.8735      1.2468
   238         C         13.2818      1.9810     14.1965
   239         C         22.8232     22.0890      2.1615
   240         C          7.9985     16.8057      8.1790
   241         C         14.7934     17.3039     20.8133
   242         C          3.2567      2.7584     18.8011
   243         C          2.7608     12.7836      8.7759
   244         C         20.8133     14.7934     17.3039
   245         C         18.8011      3.2567      2.7584
   246         C          0.7486      3.2591     21.3092
   247         C         17.3039     20.8133     14.7934
   248         C          2.7584     18.8011      3.2567
   249         C         12.7836      8.7759      2.7608
   250         C          9.2766      5.2689     15.2917
   251         C         23.3214     15.2941     14.7958
   252         C         21.3092      0.7486      3.2591
   253         C         15.2941     14.7958     23.3214
   254         C         14.7958     23.3214     15.2941
   255         C         11.2864     20.8109      9.2742
   256         C         21.3116      6.7661      8.7783
   257         C          6.7661      8.7783     21.3116
   258         C         15.2917      9.2766      5.2689
   259         C          5.2689     15.2917      9.2766
   260         C         20.8109      9.2742     11.2864
   261         C          9.2742     11.2864     20.8109
   262         C          8.7759      2.7608     12.7836
   263         C          3.2591     21.3092      0.7486
   264         C          8.7783     21.3116      6.7661
   265         C         16.8803     15.4770     21.4873
   266         C          2.5827      4.8453     20.6280
   267         C          3.4348     14.6105     10.8628
   268         C         21.4873     16.8803     15.4770
   269         C         20.6280      2.5827      4.8453
   270         C          2.5755      1.1722     20.6352
   271         C         15.4770     21.4873     16.8803
   272         C          4.8453     20.6280      2.5827
   273         C         14.6105     10.8628      3.4348
   274         C          7.1897      3.4420     14.6177
   275         C         21.4945     13.2072     15.4698
   276         C         20.6352      2.5755      1.1722
   277         C         13.2072     15.4698     21.4945
   278         C         15.4698     21.4945     13.2072
   279         C          9.4595     22.8978      8.6002
   280         C         19.2247      8.5930      9.4523
   281         C          8.5930      9.4523     19.2247
   282         C         14.6177      7.1897      3.4420
   283         C          3.4420     14.6177      7.1897
   284         C         22.8978      8.6002      9.4595
   285         B          8.6002      9.4595     22.8978
   286         B         10.8628      3.4348     14.6105
   287         B          1.1722     20.6352      2.5755
   288         B          9.4523     19.2247      8.5930
   289         H         13.4503     21.5980     17.5518
   290         H          6.5182      1.4153     14.5070
   291         H         23.5693      8.4895      7.4328
   292         H         17.5518     13.4503     21.5980
   293         H         14.5070      6.5182      1.4153
   294         H         20.5245      4.6022      0.5007
   295         H         21.5980     17.5518     13.4503
   296         H          1.4153     14.5070      6.5182
   297         H          8.4895      7.4328     23.5693
   298         H         10.6197      9.5630     18.5532
   299         H          3.5455     16.6372     11.5343
   300         H          0.5007     20.5245      4.6022
   301         H         16.6372     11.5343      3.5455
   302         H         11.5343      3.5455     16.6372
   303         H         15.5805     19.4678     12.5357
   304         H         22.6547      2.4720      5.5168
   305         H          2.4720      5.5168     22.6547
   306         H         18.5532     10.6197      9.5630
   307         H          9.5630     18.5532     10.6197
   308         H         19.4678     12.5357     15.5805
   309         H         12.5357     15.5805     19.4678
   310         H          7.4328     23.5693      8.4895
   311         H          4.6022      0.5007     20.5245
   312         H          5.5168     22.6547      2.4720
   313         H         13.7488     20.1273     19.4991
   314         H          4.5709      1.7138     15.9777
   315         H          1.4466      9.9602      7.7313
   316         H         19.4991     13.7488     20.1273
   317         H         15.9777      4.5709      1.7138
   318         H         21.9952      4.3037     22.6234
   319         H         20.1273     19.4991     13.7488
   320         H          1.7138     15.9777      4.5709
   321         H          9.9602      7.7313      1.4466
   322         H         10.3212      8.0923     16.6059
   323         H          2.0748     16.3387     13.4816
   324         H         22.6234     21.9952      4.3037
   325         H         16.3387     13.4816      2.0748
   326         H         13.4816      2.0748     16.3387
   327         H         14.1098     19.7663     10.5884
   328         H         22.3562      3.9427      7.4641
   329         H          3.9427      7.4641     22.3562
   330         H         16.6059     10.3212      8.0923
   331         H          8.0923     16.6059     10.3212
   332         H         19.7663     10.5884     14.1098
   333         H         10.5884     14.1098     19.7663
   334         H          7.7313      1.4466      9.9602
   335         H          4.3037     22.6234     21.9952
   336         H          7.4641     22.3562      3.9427
   337         H         14.0039     17.8985     20.3367
   338         H          3.7333      1.9689     18.2065
   339         H          2.2842     12.1890      7.9864
   340         H         20.3367     14.0039     17.8985
   341         H         18.2065      3.7333      1.9689
   342         H          0.1540      4.0486     21.7858
   343         H         17.8985     20.3367     14.0039
   344         H          1.9689     18.2065      3.7333
   345         H         12.1890      7.9864      2.2842
   346         H         10.0661      5.8635     15.7683
   347         H         23.9160     16.0836     14.3192
   348         H         21.7858      0.1540      4.0486
   349         H         16.0836     14.3192     23.9160
   350         H         14.3192     23.9160     16.0836
   351         H         11.8810     20.0214      9.7508
   352         H         22.1011      6.1715      8.3017
   353         H          6.1715      8.3017     22.1011
   354         H         15.7683     10.0661      5.8635
   355         H          5.8635     15.7683     10.0661
   356         H         20.0214      9.7508     11.8810
   357         H          9.7508     11.8810     20.0214
   358         H          7.9864      2.2842     12.1890
   359         H          4.0486     21.7858      0.1540
   360         H          8.3017     22.1011      6.1715

 General Reference for PM7:
 "Optimization of Parameters for Semiempirical Methods VI: More Modifications to the 
 NDDO Approximations and Re-optimization of Parameters", J. J. P. Stewart, J. Mol. Mod., 1:32, 19 (2013)
 https://link.springer.com/article/10.1007/s00894-012-1667-x

           Empirical Formula: C284 H72 B4  =   360 atoms



      RHF CALCULATION, NO. OF DOUBLY OCCUPIED LEVELS = 610


 -------------------------------------------------------------------------------
 PM7 CHARGE=0 NOOPT




     NO PARAMETERS MARKED FOR OPTIMIZATION, SO 1SCF WAS USED  
     SCF FIELD WAS ACHIEVED                                   


                              PM7 CALCULATION
                                                       MOPAC v22.1.0 Linux
                                                       Fri Dec 22 13:08:18 2023




          FINAL HEAT OF FORMATION =       2688.04946 KCAL/MOL =   11246.79896 KJ/MOL
          H.o.F. per unit cell    =        672.01237 KCAL, for 4 unit cells, unit cell = C71 H18 B1



          IONIZATION POTENTIAL    =          7.328743 EV
          HOMO LUMO ENERGIES (EV) =         -7.329 -5.042
          NO. OF FILLED LEVELS    =        610
          MOLECULAR WEIGHT        =       3526.9328

                   THE SYSTEM IS A SOLID


                UNIT CELL TRANSLATION VECTORS

              X                Y              Z
    T1 =    24.0700000      0.0000000      0.0000000
    T2 =     0.0000000     24.0700000      0.0000000
    T3 =     0.0000000      0.0000000     24.0700000

          VOLUME OF UNIT CELL     =      13945.313 CUBIC ANGSTROMS

          DENSITY                 =          0.420 GRAMS/CC
                              A   =         24.070 ANGSTROMS
                              B   =         24.070 ANGSTROMS
                              C   =         24.070 ANGSTROMS
                            ALPHA =         90.000 DEGREES
                            BETA  =         90.000 DEGREES
                            GAMMA =         90.000 DEGREES



          SCF CALCULATIONS        =          1

          WALL-CLOCK TIME         =          2 MINUTES AND 0.441 SECONDS
          COMPUTATION TIME        =         39 MINUTES AND 54.189 SECONDS




   ATOM   CHEMICAL          X               Y               Z
  NUMBER   SYMBOL      (ANGSTROMS)     (ANGSTROMS)     (ANGSTROMS)

     1       C         17.76606700     14.46125600     21.22974000   
     2       C          2.84026000      5.73106700     21.64374400   
     3       C          3.17724000     15.62624400     11.74856700   
     4       C         21.22974000     17.76606700     14.46125600   
     5       C         21.64374400      2.84026000      5.73106700   
     6       C          3.59124400      0.28643300     20.89276000   
     7       C         14.46125600     21.22974000     17.76606700   
     8       C          5.73106700     21.64374400      2.84026000   
     9       C         15.62624400     11.74856700      3.17724000   
    10       C          6.30393300      2.42625600     14.87526000   
    11       C         20.47875600     12.32143300     15.21224000   
    12       C         20.89276000      3.59124400      0.28643300   
    13       C         12.32143300     15.21224000     20.47875600   
    14       C         15.21224000     20.47875600     12.32143300   
    15       C          8.44375600     23.78356700      8.85776000   
    16       C         18.33893300      9.60874400      9.19474000   
    17       C          9.60874400      9.19474000     18.33893300   
    18       C         14.87526000      6.30393300      2.42625600   
    19       C          2.42625600     14.87526000      6.30393300   
    20       C         23.78356700      8.85776000      8.44375600   
    21       C          8.85776000      8.44375600     23.78356700   
    22       C         11.74856700      3.17724000     15.62624400   
    23       C          0.28643300     20.89276000      3.59124400   
    24       C          9.19474000     18.33893300      9.60874400   
    25       C         18.94068300     14.63696700     20.42098800   
    26       C          3.64901200      6.90568300     21.46803300   
    27       C          2.36848800     15.45053300     12.92318300   
    28       C         20.42098800     18.94068300     14.63696700   
    29       C         21.46803300      3.64901200      6.90568300   
    30       C          3.41553300     23.18181700     21.70151200   
    31       C         14.63696700     20.42098800     18.94068300   
    32       C          6.90568300     21.46803300      3.64901200   
    33       C         15.45053300     12.92318300      2.36848800   
    34       C          5.12931700      2.60196700     15.68401200   
    35       C         20.65446700     11.14681700     14.40348800   
    36       C         21.70151200      3.41553300     23.18181700   
    37       C         11.14681700     14.40348800     20.65446700   
    38       C         14.40348800     20.65446700     11.14681700   
    39       C          8.61946700      0.88818300      9.66651200   
    40       C         17.16431700      9.43303300      8.38598800   
    41       C          9.43303300      8.38598800     17.16431700   
    42       C         15.68401200      5.12931700      2.60196700   
    43       C          2.60196700     15.68401200      5.12931700   
    44       C          0.88818300      9.66651200      8.61946700   
    45       C          9.66651200      8.61946700      0.88818300   
    46       C         12.92318300      2.36848800     15.45053300   
    47       C         23.18181700     21.70151200      3.41553300   
    48       C          8.38598800     17.16431700      9.43303300   
    49       C         15.55884800     15.38313700     22.14199300   
    50       C          1.92800700      3.52384800     20.72186300   
    51       C          4.08949300     14.70436300      9.54134800   
    52       C         22.14199300     15.55884800     15.38313700   
    53       C         20.72186300      1.92800700      3.52384800   
    54       C          2.66936300      2.49365200     19.98050700   
    55       C         15.38313700     22.14199300     15.55884800   
    56       C          3.52384800     20.72186300      1.92800700   
    57       C         14.70436300      9.54134800      4.08949300   
    58       C          8.51115200      3.34813700     13.96300700   
    59       C         21.40063700     14.52865200     16.12449300   
    60       C         19.98050700      2.66936300      2.49365200   
    61       C         14.52865200     16.12449300     21.40063700   
    62       C         16.12449300     21.40063700     14.52865200   
    63       C          9.36563700     21.57634800      7.94550700   
    64       C         20.54615200      8.68686300     10.10699300   
    65       C          8.68686300     10.10699300     20.54615200   
    66       C         13.96300700      8.51115200      3.34813700   
    67       C          3.34813700     13.96300700      8.51115200   
    68       C         21.57634800      7.94550700      9.36563700   
    69       C          7.94550700      9.36563700     21.57634800   
    70       C          9.54134800      4.08949300     14.70436300   
    71       C          2.49365200     19.98050700      2.66936300   
    72       C         10.10699300     20.54615200      8.68686300   
    73       C         19.21748800     19.98050700     17.98510400   
    74       C          6.08489600      7.18248800     16.12449300   
    75       C         24.00260400     10.10699300     13.19998800   
    76       C         17.98510400     19.21748800     19.98050700   
    77       C         16.12449300      6.08489600      7.18248800   
    78       C         22.14199300     22.90501200      0.06739600   
    79       C         19.98050700     17.98510400     19.21748800   
    80       C          7.18248800     16.12449300      6.08489600   
    81       C         10.10699300     13.19998800     24.00260400   
    82       C          4.85251200      7.94550700     18.11989600   
    83       C          1.92800700     10.87001200     11.96760400   
    84       C          0.06739600     22.14199300     22.90501200   
    85       C         10.87001200     11.96760400      1.92800700   
    86       C         11.96760400      1.92800700     10.87001200   
    87       C         13.96300700      1.16498800     12.10239600   
    88       C         16.88751200      4.08949300      5.95010400   
    89       C          4.08949300      5.95010400     16.88751200   
    90       C         18.11989600      4.85251200      7.94550700   
    91       C          7.94550700     18.11989600      4.85251200   
    92       C          1.16498800     12.10239600     13.96300700   
    93       C         12.10239600     13.96300700      1.16498800   
    94       C         13.19998800     24.00260400     10.10699300   
    95       C         22.90501200      0.06739600     22.14199300   
    96       C          5.95010400     16.88751200      4.08949300   
    97       C         18.45687600     16.94528000     20.56300100   
    98       C          3.50699900      6.42187600     19.15972000   
    99       C          2.51050100     13.14222000     12.43937600   
   100       C         20.56300100     18.45687600     16.94528000   
   101       C         19.15972000      3.50699900      6.42187600   
   102       C          1.10722000     23.66562400     21.55949900   
   103       C         16.94528000     20.56300100     18.45687600   
   104       C          6.42187600     19.15972000      3.50699900   
   105       C         13.14222000     12.43937600      2.51050100   
   106       C          5.61312400      4.91028000     15.54199900   
   107       C         22.96278000     11.63062400     14.54550100   
   108       C         21.55949900      1.10722000     23.66562400   
   109       C         11.63062400     14.54550100     22.96278000   
   110       C         14.54550100     22.96278000     11.63062400   
   111       C         10.92778000      0.40437600      9.52449900   
   112       C         17.64812400      7.12472000      8.52800100   
   113       C          7.12472000      8.52800100     17.64812400   
   114       C         15.54199900      5.61312400      4.91028000   
   115       C          4.91028000     15.54199900      5.61312400   
   116       C          0.40437600      9.52449900     10.92778000   
   117       C          9.52449900     10.92778000      0.40437600   
   118       C         12.43937600      2.51050100     13.14222000   
   119       C         23.66562400     21.55949900      1.10722000   
   120       C          8.52800100     17.64812400      7.12472000   
   121       C         16.54812500     19.02011400     20.18991600   
   122       C          3.88008400      4.51312500     17.08488600   
   123       C          2.13741600     11.06738600     10.53062500   
   124       C         20.18991600     16.54812500     19.02011400   
   125       C         17.08488600      3.88008400      4.51312500   
   126       C         23.10238600      1.50437500     21.93258400   
   127       C         19.02011400     20.18991600     16.54812500   
   128       C          4.51312500     17.08488600      3.88008400   
   129       C         11.06738600     10.53062500      2.13741600   
   130       C          7.52187500      6.98511400     15.91508400   
   131       C          0.96761400     13.53937500     14.17241600   
   132       C         21.93258400     23.10238600      1.50437500   
   133       C         13.53937500     14.17241600      0.96761400   
   134       C         14.17241600      0.96761400     13.53937500   
   135       C         13.00261400     22.56562500      9.89758400   
   136       C         19.55687500      5.04988600      8.15491600   
   137       C          5.04988600      8.15491600     19.55687500   
   138       C         15.91508400      7.52187500      6.98511400   
   139       C          6.98511400     15.91508400      7.52187500   
   140       C         22.56562500      9.89758400     13.00261400   
   141       C          9.89758400     13.00261400     22.56562500   
   142       C         10.53062500      2.13741600     11.06738600   
   143       C          1.50437500     21.93258400     23.10238600   
   144       C          8.15491600     19.55687500      5.04988600   
   145       C         23.22514300     21.99035200     23.90873100   
   146       C          0.16126900     11.19014300     14.11464800   
   147       C          5.85623100      8.09714800     17.20764300   
   148       C         23.90873100     23.22514300     21.99035200   
   149       C         14.11464800      0.16126900     11.19014300   
   150       C         20.13214800     18.89735700     18.21376900   
   151       C         21.99035200     23.90873100     23.22514300   
   152       C         11.19014300     14.11464800      0.16126900   
   153       C          8.09714800     17.20764300      5.85623100   
   154       C          0.84485700      9.95535200     12.19626900   
   155       C          3.93785200      6.86235700     17.89123100   
   156       C         18.21376900     20.13214800     18.89735700   
   157       C          6.86235700     17.89123100      3.93785200   
   158       C         17.89123100      3.93785200      6.86235700   
   159       C         15.97285200      5.17264300      6.17876900   
   160       C         12.87985700      2.07964800     11.87373100   
   161       C          2.07964800     11.87373100     12.87985700   
   162       C         12.19626900      0.84485700      9.95535200   
   163       C          9.95535200     12.19626900      0.84485700   
   164       C          5.17264300      6.17876900     15.97285200   
   165       C          6.17876900     15.97285200      5.17264300   
   166       C         17.20764300      5.85623100      8.09714800   
   167       C         18.89735700     18.21376900     20.13214800   
   168       C         11.87373100     12.87985700      2.07964800   
   169       C         17.16672400     16.79123200     21.00829600   
   170       C          3.06170400      5.13172400     19.31376800   
   171       C          2.95579600     13.29626800     11.14922400   
   172       C         21.00829600     17.16672400     16.79123200   
   173       C         19.31376800      3.06170400      5.13172400   
   174       C          1.26126800      0.88577600     21.11420400   
   175       C         16.79123200     21.00829600     17.16672400   
   176       C          5.13172400     19.31376800      3.06170400   
   177       C         13.29626800     11.14922400      2.95579600   
   178       C          6.90327600      4.75623200     15.09670400   
   179       C         22.80873200     12.92077600     14.99079600   
   180       C         21.11420400      1.26126800      0.88577600   
   181       C         12.92077600     14.99079600     22.80873200   
   182       C         14.99079600     22.80873200     12.92077600   
   183       C         10.77373200     23.18422400      9.07920400   
   184       C         18.93827600      7.27876800      8.97329600   
   185       C          7.27876800      8.97329600     18.93827600   
   186       C         15.09670400      6.90327600      4.75623200   
   187       C          4.75623200     15.09670400      6.90327600   
   188       C         23.18422400      9.07920400     10.77373200   
   189       C          9.07920400     10.77373200     23.18422400   
   190       C         11.14922400      2.95579600     13.29626800   
   191       C          0.88577600     21.11420400      1.26126800   
   192       C          8.97329600     18.93827600      7.27876800   
   193       C         16.16300500     17.81420700     20.72908400   
   194       C          3.34091600      4.12800500     18.29079300   
   195       C          2.67658400     12.27329300     10.14550500   
   196       C         20.72908400     16.16300500     17.81420700   
   197       C         18.29079300      3.34091600      4.12800500   
   198       C          0.23829300      1.88949500     21.39341600   
   199       C         17.81420700     20.72908400     16.16300500   
   200       C          4.12800500     18.29079300      3.34091600   
   201       C         12.27329300     10.14550500      2.67658400   
   202       C          7.90699500      5.77920700     15.37591600   
   203       C         23.83170700     13.92449500     14.71158400   
   204       C         21.39341600      0.23829300      1.88949500   
   205       C         13.92449500     14.71158400     23.83170700   
   206       C         14.71158400     23.83170700     13.92449500   
   207       C         11.79670700     22.18050500      9.35841600   
   208       C         19.94199500      6.25579300      8.69408400   
   209       C          6.25579300      8.69408400     19.94199500   
   210       C         15.37591600      7.90699500      5.77920700   
   211       C          5.77920700     15.37591600      7.90699500   
   212       C         22.18050500      9.35841600     11.79670700   
   213       C          9.35841600     11.79670700     22.18050500   
   214       C         10.14550500      2.67658400     12.27329300   
   215       C          1.88949500     21.39341600      0.23829300   
   216       C          8.69408400     19.94199500      6.25579300   
   217       C         19.29932600     15.89101400     20.03346100   
   218       C          4.03653900      7.26432600     20.21398600   
   219       C          1.98096100     14.19648600     13.28182600   
   220       C         20.03346100     19.29932600     15.89101400   
   221       C         20.21398600      4.03653900      7.26432600   
   222       C          2.16148600     22.82317400     22.08903900   
   223       C         15.89101400     20.03346100     19.29932600   
   224       C          7.26432600     20.21398600      4.03653900   
   225       C         14.19648600     13.28182600      1.98096100   
   226       C          4.77067400      3.85601400     16.07153900   
   227       C         21.90851400     10.78817400     14.01596100   
   228       C         22.08903900      2.16148600     22.82317400   
   229       C         10.78817400     14.01596100     21.90851400   
   230       C         14.01596100     21.90851400     10.78817400   
   231       C          9.87351400      1.24682600     10.05403900   
   232       C         16.80567400      8.17898600      7.99846100   
   233       C          8.17898600      7.99846100     16.80567400   
   234       C         16.07153900      4.77067400      3.85601400   
   235       C          3.85601400     16.07153900      4.77067400   
   236       C          1.24682600     10.05403900      9.87351400   
   237       C         10.05403900      9.87351400      1.24682600   
   238       C         13.28182600      1.98096100     14.19648600   
   239       C         22.82317400     22.08903900      2.16148600   
   240       C          7.99846100     16.80567400      8.17898600   
   241       C         14.79342200     17.30392300     20.81332900   
   242       C          3.25667100      2.75842200     18.80107700   
   243       C          2.76082900     12.78357700      8.77592200   
   244       C         20.81332900     14.79342200     17.30392300   
   245       C         18.80107700      3.25667100      2.75842200   
   246       C          0.74857700      3.25907800     21.30917100   
   247       C         17.30392300     20.81332900     14.79342200   
   248       C          2.75842200     18.80107700      3.25667100   
   249       C         12.78357700      8.77592200      2.76082900   
   250       C          9.27657800      5.26892300     15.29167100   
   251       C         23.32142300     15.29407800     14.79582900   
   252       C         21.30917100      0.74857700      3.25907800   
   253       C         15.29407800     14.79582900     23.32142300   
   254       C         14.79582900     23.32142300     15.29407800   
   255       C         11.28642300     20.81092200      9.27417100   
   256       C         21.31157800      6.76607700      8.77832900   
   257       C          6.76607700      8.77832900     21.31157800   
   258       C         15.29167100      9.27657800      5.26892300   
   259       C          5.26892300     15.29167100      9.27657800   
   260       C         20.81092200      9.27417100     11.28642300   
   261       C          9.27417100     11.28642300     20.81092200   
   262       C          8.77592200      2.76082900     12.78357700   
   263       C          3.25907800     21.30917100      0.74857700   
   264       C          8.77832900     21.31157800      6.76607700   
   265       C         16.88029100     15.47701000     21.48728900   
   266       C          2.58271100      4.84529100     20.62799000   
   267       C          3.43478900     14.61049000     10.86279100   
   268       C         21.48728900     16.88029100     15.47701000   
   269       C         20.62799000      2.58271100      4.84529100   
   270       C          2.57549000      1.17220900     20.63521100   
   271       C         15.47701000     21.48728900     16.88029100   
   272       C          4.84529100     20.62799000      2.58271100   
   273       C         14.61049000     10.86279100      3.43478900   
   274       C          7.18970900      3.44201000     14.61771100   
   275       C         21.49451000     13.20720900     15.46978900   
   276       C         20.63521100      2.57549000      1.17220900   
   277       C         13.20720900     15.46978900     21.49451000   
   278       C         15.46978900     21.49451000     13.20720900   
   279       C          9.45951000     22.89779100      8.60021100   
   280       C         19.22470900      8.59299000      9.45228900   
   281       C          8.59299000      9.45228900     19.22470900   
   282       C         14.61771100      7.18970900      3.44201000   
   283       C          3.44201000     14.61771100      7.18970900   
   284       C         22.89779100      8.60021100      9.45951000   
   285       B          8.60021100      9.45951000     22.89779100   
   286       B         10.86279100      3.43478900     14.61049000   
   287       B          1.17220900     20.63521100      2.57549000   
   288       B          9.45228900     19.22470900      8.59299000   
   289       H         13.45031600     21.59801100     17.55184400   
   290       H          6.51815600      1.41531600     14.50698900   
   291       H         23.56934400      8.48948900      7.43281600   
   292       H         17.55184400     13.45031600     21.59801100   
   293       H         14.50698900      6.51815600      1.41531600   
   294       H         20.52448900      4.60218400      0.50065600   
   295       H         21.59801100     17.55184400     13.45031600   
   296       H          1.41531600     14.50698900      6.51815600   
   297       H          8.48948900      7.43281600     23.56934400   
   298       H         10.61968400      9.56301100     18.55315600   
   299       H          3.54551100     16.63718400     11.53434400   
   300       H          0.50065600     20.52448900      4.60218400   
   301       H         16.63718400     11.53434400      3.54551100   
   302       H         11.53434400      3.54551100     16.63718400   
   303       H         15.58051100     19.46781600     12.53565600   
   304       H         22.65468400      2.47198900      5.51684400   
   305       H          2.47198900      5.51684400     22.65468400   
   306       H         18.55315600     10.61968400      9.56301100   
   307       H          9.56301100     18.55315600     10.61968400   
   308       H         19.46781600     12.53565600     15.58051100   
   309       H         12.53565600     15.58051100     19.46781600   
   310       H          7.43281600     23.56934400      8.48948900   
   311       H          4.60218400      0.50065600     20.52448900   
   312       H          5.51684400     22.65468400      2.47198900   
   313       H         13.74878400     20.12733400     19.49910700   
   314       H          4.57089300      1.71378400     15.97766600   
   315       H          1.44660700      9.96016600      7.73128400   
   316       H         19.49910700     13.74878400     20.12733400   
   317       H         15.97766600      4.57089300      1.71378400   
   318       H         21.99516600      4.30371600     22.62339300   
   319       H         20.12733400     19.49910700     13.74878400   
   320       H          1.71378400     15.97766600      4.57089300   
   321       H          9.96016600      7.73128400      1.44660700   
   322       H         10.32121600      8.09233400     16.60589300   
   323       H          2.07483400     16.33871600     13.48160700   
   324       H         22.62339300     21.99516600      4.30371600   
   325       H         16.33871600     13.48160700      2.07483400   
   326       H         13.48160700      2.07483400     16.33871600   
   327       H         14.10983400     19.76628400     10.58839300   
   328       H         22.35621600      3.94266600      7.46410700   
   329       H          3.94266600      7.46410700     22.35621600   
   330       H         16.60589300     10.32121600      8.09233400   
   331       H          8.09233400     16.60589300     10.32121600   
   332       H         19.76628400     10.58839300     14.10983400   
   333       H         10.58839300     14.10983400     19.76628400   
   334       H          7.73128400      1.44660700      9.96016600   
   335       H          4.30371600     22.62339300     21.99516600   
   336       H          7.46410700     22.35621600      3.94266600   
   337       H         14.00392600     17.89845200     20.33674300   
   338       H          3.73325700      1.96892600     18.20654800   
   339       H          2.28424300     12.18904800      7.98642600   
   340       H         20.33674300     14.00392600     17.89845200   
   341       H         18.20654800      3.73325700      1.96892600   
   342       H          0.15404800      4.04857400     21.78575700   
   343       H         17.89845200     20.33674300     14.00392600   
   344       H          1.96892600     18.20654800      3.73325700   
   345       H         12.18904800      7.98642600      2.28424300   
   346       H         10.06607400      5.86345200     15.76825700   
   347       H         23.91595200     16.08357400     14.31924300   
   348       H         21.78575700      0.15404800      4.04857400   
   349       H         16.08357400     14.31924300     23.91595200   
   350       H         14.31924300     23.91595200     16.08357400   
   351       H         11.88095200     20.02142600      9.75075700   
   352       H         22.10107400      6.17154800      8.30174300   
   353       H          6.17154800      8.30174300     22.10107400   
   354       H         15.76825700     10.06607400      5.86345200   
   355       H          5.86345200     15.76825700     10.06607400   
   356       H         20.02142600      9.75075700     11.88095200   
   357       H          9.75075700     11.88095200     20.02142600   
   358       H          7.98642600      2.28424300     12.18904800   
   359       H          4.04857400     21.78575700      0.15404800   
   360       H          8.30174300     22.10107400      6.17154800   
   361      Tv         24.07000000      0.00000000      0.00000000   
   362      Tv          0.00000000     24.07000000      0.00000000   
   363      Tv          0.00000000      0.00000000     24.07000000   

                             CARTESIAN COORDINATES

   1    C       17.766067000    14.461256000    21.229740000
   2    C        2.840260000     5.731067000    21.643744000
   3    C        3.177240000    15.626244000    11.748567000
   4    C       21.229740000    17.766067000    14.461256000
   5    C       21.643744000     2.840260000     5.731067000
   6    C        3.591244000     0.286433000    20.892760000
   7    C       14.461256000    21.229740000    17.766067000
   8    C        5.731067000    21.643744000     2.840260000
   9    C       15.626244000    11.748567000     3.177240000
  10    C        6.303933000     2.426256000    14.875260000
  11    C       20.478756000    12.321433000    15.212240000
  12    C       20.892760000     3.591244000     0.286433000
  13    C       12.321433000    15.212240000    20.478756000
  14    C       15.212240000    20.478756000    12.321433000
  15    C        8.443756000    23.783567000     8.857760000
  16    C       18.338933000     9.608744000     9.194740000
  17    C        9.608744000     9.194740000    18.338933000
  18    C       14.875260000     6.303933000     2.426256000
  19    C        2.426256000    14.875260000     6.303933000
  20    C       23.783567000     8.857760000     8.443756000
  21    C        8.857760000     8.443756000    23.783567000
  22    C       11.748567000     3.177240000    15.626244000
  23    C        0.286433000    20.892760000     3.591244000
  24    C        9.194740000    18.338933000     9.608744000
  25    C       18.940683000    14.636967000    20.420988000
  26    C        3.649012000     6.905683000    21.468033000
  27    C        2.368488000    15.450533000    12.923183000
  28    C       20.420988000    18.940683000    14.636967000
  29    C       21.468033000     3.649012000     6.905683000
  30    C        3.415533000    23.181817000    21.701512000
  31    C       14.636967000    20.420988000    18.940683000
  32    C        6.905683000    21.468033000     3.649012000
  33    C       15.450533000    12.923183000     2.368488000
  34    C        5.129317000     2.601967000    15.684012000
  35    C       20.654467000    11.146817000    14.403488000
  36    C       21.701512000     3.415533000    23.181817000
  37    C       11.146817000    14.403488000    20.654467000
  38    C       14.403488000    20.654467000    11.146817000
  39    C        8.619467000     0.888183000     9.666512000
  40    C       17.164317000     9.433033000     8.385988000
  41    C        9.433033000     8.385988000    17.164317000
  42    C       15.684012000     5.129317000     2.601967000
  43    C        2.601967000    15.684012000     5.129317000
  44    C        0.888183000     9.666512000     8.619467000
  45    C        9.666512000     8.619467000     0.888183000
  46    C       12.923183000     2.368488000    15.450533000
  47    C       23.181817000    21.701512000     3.415533000
  48    C        8.385988000    17.164317000     9.433033000
  49    C       15.558848000    15.383137000    22.141993000
  50    C        1.928007000     3.523848000    20.721863000
  51    C        4.089493000    14.704363000     9.541348000
  52    C       22.141993000    15.558848000    15.383137000
  53    C       20.721863000     1.928007000     3.523848000
  54    C        2.669363000     2.493652000    19.980507000
  55    C       15.383137000    22.141993000    15.558848000
  56    C        3.523848000    20.721863000     1.928007000
  57    C       14.704363000     9.541348000     4.089493000
  58    C        8.511152000     3.348137000    13.963007000
  59    C       21.400637000    14.528652000    16.124493000
  60    C       19.980507000     2.669363000     2.493652000
  61    C       14.528652000    16.124493000    21.400637000
  62    C       16.124493000    21.400637000    14.528652000
  63    C        9.365637000    21.576348000     7.945507000
  64    C       20.546152000     8.686863000    10.106993000
  65    C        8.686863000    10.106993000    20.546152000
  66    C       13.963007000     8.511152000     3.348137000
  67    C        3.348137000    13.963007000     8.511152000
  68    C       21.576348000     7.945507000     9.365637000
  69    C        7.945507000     9.365637000    21.576348000
  70    C        9.541348000     4.089493000    14.704363000
  71    C        2.493652000    19.980507000     2.669363000
  72    C       10.106993000    20.546152000     8.686863000
  73    C       19.217488000    19.980507000    17.985104000
[...]
  293          H           0.167151        0.8328     0.83285
  294          H           0.168716        0.8313     0.83128
  295          H           0.161386        0.8386     0.83861
  296          H           0.161594        0.8384     0.83841
  297          H           0.113634        0.8864     0.88637
  298          H           0.167027        0.8330     0.83297
  299          H           0.162095        0.8379     0.83791
  300          H           0.139883        0.8601     0.86012
  301          H           0.151789        0.8482     0.84821
  302          H           0.145178        0.8548     0.85482
  303          H           0.165355        0.8346     0.83465
  304          H           0.156232        0.8438     0.84377
  305          H           0.155178        0.8448     0.84482
  306          H           0.160426        0.8396     0.83957
  307          H           0.118665        0.8813     0.88133
  308          H           0.160508        0.8395     0.83949
  309          H           0.151193        0.8488     0.84881
  310          H           0.166713        0.8333     0.83329
  311          H           0.169061        0.8309     0.83094
  312          H           0.155466        0.8445     0.84453
  313          H           0.169319        0.8307     0.83068
  314          H           0.162469        0.8375     0.83753
  315          H           0.163063        0.8369     0.83694
  316          H           0.159847        0.8402     0.84015
  317          H           0.153780        0.8462     0.84622
  318          H           0.168319        0.8317     0.83168
  319          H           0.157696        0.8423     0.84230
  320          H           0.151494        0.8485     0.84851
  321          H           0.130729        0.8693     0.86927
  322          H           0.147595        0.8524     0.85241
  323          H           0.157984        0.8420     0.84202
  324          H           0.178946        0.8211     0.82105
  325          H           0.153983        0.8460     0.84602
  326          H           0.179813        0.8202     0.82019
  327          H           0.178080        0.8219     0.82192
  328          H           0.165037        0.8350     0.83496
  329          H           0.175782        0.8242     0.82422
  330          H           0.166077        0.8339     0.83392
  331          H           0.137693        0.8623     0.86231
  332          H           0.160427        0.8396     0.83957
  333          H           0.160455        0.8395     0.83954
  334          H           0.156351        0.8436     0.84365
  335          H           0.164534        0.8355     0.83547
  336          H           0.169112        0.8309     0.83089
  337          H           0.170770        0.8292     0.82923
  338          H           0.166803        0.8332     0.83320
  339          H           0.168497        0.8315     0.83150
  340          H           0.171411        0.8286     0.82859
  341          H           0.171423        0.8286     0.82858
  342          H           0.173526        0.8265     0.82647
  343          H           0.171234        0.8288     0.82877
  344          H           0.164733        0.8353     0.83527
  345          H           0.169844        0.8302     0.83016
  346          H           0.165574        0.8344     0.83443
  347          H           0.168477        0.8315     0.83152
  348          H           0.175573        0.8244     0.82443
  349          H           0.164810        0.8352     0.83519
  350          H           0.174847        0.8252     0.82515
  351          H           0.173874        0.8261     0.82613
  352          H           0.168982        0.8310     0.83102
  353          H           0.172434        0.8276     0.82757
  354          H           0.169900        0.8301     0.83010
  355          H           0.174406        0.8256     0.82559
  356          H           0.169936        0.8301     0.83006
  357          H           0.152271        0.8477     0.84773
  358          H           0.172215        0.8278     0.82779
  359          H           0.172019        0.8280     0.82798
  360          H           0.153502        0.8465     0.84650


          ATOMIC ORBITAL ELECTRON POPULATIONS

     Atom    s        px        py        pz   
    1  C   1.08408   0.98952   1.07635   1.02024
    2  C   1.08865   0.98260   0.97835   1.06295
    3  C   1.08404   1.01849   1.07498   0.98927
    4  C   1.08384   1.01936   0.98900   1.07502
    5  C   1.08727   1.06614   0.98883   0.97742
    6  C   1.08395   1.07994   0.99094   1.02694
    7  C   1.08832   1.06495   0.98179   0.97462
    8  C   1.09049   0.96953   1.06311   0.96977
    9  C   1.08433   1.06895   0.98622   1.00923
   10  C   1.08686   0.97806   1.07059   0.99629
   11  C   1.08495   1.07236   0.98584   1.00987
   12  C   1.08580   1.01238   1.07635   0.98715
   13  C   1.08656   0.98212   0.99370   1.06433
   14  C   1.08749   0.99993   1.07060   0.98474
   15  C   1.08148   1.08492   0.99726   1.04752
   16  C   1.08588   0.98525   1.07074   1.00513
   17  C   1.08053   1.08691   1.05196   0.99789
   18  C   1.08255   1.03241   0.99277   1.08073
   19  C   1.08253   1.07922   1.03114   0.99241
   20  C   1.08542   0.98559   1.00727   1.07109
   21  C   1.10961   0.92336   1.11431   0.95529
   22  C   1.13948   0.90954   0.77798   1.12696
   23  C   1.14232   0.89913   0.76402   1.12467
   24  C   1.11188   0.91167   0.95030   1.11656
   25  C   1.08438   0.99809   1.04268   0.98881
   26  C   1.08155   1.01399   1.00935   1.05702
   27  C   1.08371   0.99295   1.04374   0.99994
   28  C   1.08375   0.99098   0.99895   1.04234
   29  C   1.08098   1.05097   1.01405   1.01012
   30  C   1.08849   1.03978   0.98334   0.95985
   31  C   1.08116   1.05259   1.01458   1.01038
   32  C   1.07973   1.01749   1.05819   1.03112
   33  C   1.08031   1.04676   1.01013   1.01389
   34  C   1.08187   1.00794   1.04882   1.00941
   35  C   1.08288   1.04588   1.00319   0.99940
   36  C   1.08646   0.97927   1.04627   0.99271
   37  C   1.07935   1.01527   1.02613   1.05319
   38  C   1.08617   0.98540   1.05355   0.99469
   39  C   1.08918   1.03493   0.98036   0.95143
   40  C   1.08305   1.00298   1.04851   0.99986
   41  C   1.08746   1.03137   0.96175   0.98607
   42  C   1.08547   0.97943   0.99384   1.03778
   43  C   1.08543   1.03767   0.97682   0.99216
   44  C   1.08274   1.00348   1.00077   1.04747
   45  C   1.08631   1.00283   1.02371   1.01038
   46  C   1.08449   1.06318   1.07917   1.06014
   47  C   1.08194   1.06524   1.09027   1.05982
   48  C   1.08738   0.99871   1.00883   1.02552
   49  C   1.06457   0.96739   1.02344   0.99602
   50  C   1.07213   0.96140   0.96786   0.94542
   51  C   1.06346   0.99368   1.02022   0.96663
   52  C   1.06753   0.98323   0.96651   0.99341
   53  C   1.07897   0.89837   0.94328   0.96440
   54  C   1.06662   1.01149   0.96778   0.99211
   55  C   1.08060   0.89083   0.94084   0.96479
   56  C   1.07350   0.96557   0.93899   0.96463
   57  C   1.07262   0.94001   0.96440   0.95900
   58  C   1.07120   0.96225   0.94900   0.97152
   59  C   1.06846   0.98048   0.96611   0.97708
   60  C   1.06340   1.00287   1.03924   0.97184
   61  C   1.07334   0.96654   0.95765   0.93687
   62  C   1.06561   0.99530   1.02227   0.97495
   63  C   1.07553   0.99436   0.96356   0.99033
   64  C   1.06841   0.96789   0.98572   0.97959
   65  C   1.07338   1.01161   0.99736   0.96190
   66  C   1.06067   1.00768   0.96627   1.05241
   67  C   1.06906   0.97951   0.97756   0.96418
   68  C   1.07007   0.96719   0.97388   0.97196
   69  C   1.10272   0.91358   0.80278   1.03225
   70  C   1.08288   1.04950   0.98363   0.98654
   71  C   1.08983   1.05681   0.96862   0.95830
   72  C   1.10226   0.91774   1.03346   0.81047
   73  C   1.06931   0.98295   0.98372   0.95998
   74  C   1.06873   0.95575   0.99469   0.99427
   75  C   1.06989   0.95982   0.97454   0.97567
   76  C   1.07062   0.96307   0.96849   0.96767
   77  C   1.07148   0.96157   0.96268   0.96488
   78  C   1.06844   0.97039   0.97768   0.95580
   79  C   1.07141   0.96741   0.96121   0.97142
   80  C   1.07400   0.98060   0.97309   0.96426
   81  C   1.06415   1.00482   0.98411   0.96729
   82  C   1.07353   0.95037   0.94440   0.96596
   83  C   1.07004   0.97076   0.97210   0.96042
   84  C   1.06843   0.96367   0.99628   0.99086
   85  C   1.07229   0.98809   0.96227   0.98363
   86  C   1.07028   0.95939   0.98529   0.98780
   87  C   1.06645   0.98032   0.98394   0.95290
   88  C   1.06988   0.98230   0.98076   0.95859
   89  C   1.06708   0.99556   0.96222   0.98573
   90  C   1.06927   0.96102   0.97603   0.97735
   91  C   1.06169   1.02387   0.97220   0.98864
   92  C   1.07009   0.97436   0.95941   0.97259
   93  C   1.06568   0.95853   1.00408   0.99535
   94  C   1.07332   0.94897   0.96850   0.94471
   95  C   1.07116   0.96589   0.96459   0.96352
   96  C   1.06234   0.95680   1.02004   1.03787
   97  C   1.06667   0.98235   0.97884   0.98724
   98  C   1.06670   1.01191   0.98740   0.99089
   99  C   1.06594   0.99036   0.98057   0.98227
  100  C   1.06553   0.99108   0.98301   0.97991
  101  C   1.06503   0.98822   1.00819   0.98640
  102  C   1.06521   0.97645   0.98134   0.98769
  103  C   1.06566   0.98882   1.00852   0.98666
  104  C   1.06508   0.99331   1.00115   1.03652
  105  C   1.06339   0.98528   0.98831   1.01302
  106  C   1.06456   0.98878   0.98969   1.01385
  107  C   1.06559   0.98304   0.98370   0.99618
  108  C   1.07014   0.96859   0.98322   0.97454
  109  C   1.06632   0.98616   1.00943   0.99324
  110  C   1.07205   0.96938   0.98948   0.97322
  111  C   1.06552   0.96871   0.97899   0.97485
  112  C   1.06679   0.98355   0.98455   0.99518
  113  C   1.06584   0.96771   0.96849   0.97804
  114  C   1.06587   0.98235   0.98110   0.97503
  115  C   1.06233   0.97796   1.00205   0.98490
  116  C   1.06604   0.98361   0.99622   0.98448
  117  C   1.06106   1.02659   0.95178   1.00279
  118  C   1.06152   1.02318   1.08041   0.98690
  119  C   1.06196   1.02426   1.07573   0.98353
  120  C   1.06111   1.03628   1.00601   0.95222
  121  C   1.06761   0.96459   0.99233   1.04512
  122  C   1.07447   0.99010   0.97039   0.97036
  123  C   1.07185   1.01169   0.97982   0.96702
  124  C   1.07378   1.00020   0.96527   0.97715
  125  C   1.08085   0.95722   0.94790   0.96942
  126  C   1.06940   0.98653   0.96184   1.02838
  127  C   1.07851   0.96277   0.96497   0.96956
  128  C   1.09464   0.98048   0.92021   0.85683
  129  C   1.08741   0.95342   0.96762   0.91763
  130  C   1.09080   0.97452   0.93454   0.88613
  131  C   1.07456   0.97303   0.96751   0.99231
  132  C   1.06309   1.10684   1.01723   0.98035
  133  C   1.07760   0.97355   0.96818   0.96219
  134  C   1.06267   1.11261   1.01807   0.98687
  135  C   1.06026   1.01167   0.95382   1.09899
  136  C   1.07104   0.96876   0.98216   1.01945
  137  C   1.05996   1.01435   1.10513   0.95568
  138  C   1.06848   1.03816   0.96303   0.99055
  139  C   1.08493   0.96115   0.93674   0.96352
  140  C   1.07380   0.96867   0.99961   0.97560
  141  C   1.06837   1.04055   0.98627   0.96507
  142  C   1.09187   0.96880   0.90454   0.94422
  143  C   1.08995   0.96631   0.91506   0.94534
  144  C   1.06591   1.05420   0.96195   0.99032
  145  C   1.06157   0.97507   0.95599   0.97778
  146  C   1.05639   0.98072   0.98983   1.00989
  147  C   1.05042   0.99204   1.04656   0.99094
  148  C   1.05396   0.98502   0.98736   1.02044
  149  C   1.06316   0.98499   0.97527   0.99460
  150  C   1.05522   1.01859   0.99077   0.98361
  151  C   1.05994   0.99620   0.97902   0.99096
  152  C   1.06098   0.98841   0.97713   0.96827
  153  C   1.06436   0.95382   0.96030   0.98923
  154  C   1.05685   0.99119   1.00862   0.97963
  155  C   1.06171   0.98169   0.98897   0.97437
  156  C   1.05850   0.97714   0.99803   0.99063
  157  C   1.06879   0.97168   0.95607   0.91459
  158  C   1.05759   0.97728   1.00028   0.98931
  159  C   1.05428   1.02522   0.99016   0.98645
  160  C   1.05986   0.97813   0.96696   0.97684
  161  C   1.05610   1.01209   0.98136   0.98982
  162  C   1.05034   0.99272   0.99153   1.04767
  163  C   1.06045   0.98409   0.99177   0.97019
  164  C   1.06005   0.98241   0.97281   0.97832
  165  C   1.05352   0.97989   1.00605   0.97775
  166  C   1.05798   0.99234   0.97988   1.00602
  167  C   1.05621   0.99234   0.98470   1.01825
  168  C   1.05672   0.97721   0.98388   0.99847
  169  C   1.06246   0.97424   0.99007   1.02010
  170  C   1.06077   0.99730   0.97431   0.97407
  171  C   1.06169   1.01427   0.98518   0.97392
  172  C   1.06180   1.01326   0.97419   0.98492
  173  C   1.06033   0.97240   0.99680   0.97449
  174  C   1.06266   0.99015   0.97491   1.01923
  175  C   1.06030   0.97311   0.99851   0.97464
  176  C   1.05990   0.97212   0.96252   0.98119
  177  C   1.06172   0.97280   0.97281   0.98831
  178  C   1.05990   0.97205   0.97099   0.99574
  179  C   1.06136   0.98160   0.97416   1.00882
  180  C   1.06094   1.04346   0.99370   0.97848
  181  C   1.06072   0.97550   0.99599   0.97208
  182  C   1.05950   1.05091   0.99132   0.98108
  183  C   1.06450   1.00112   0.97508   1.03214
  184  C   1.06136   0.97501   0.98299   1.01281
  185  C   1.06502   1.00312   1.03335   0.97463
  186  C   1.06286   1.02207   0.97337   0.99262
  187  C   1.06322   0.98078   0.99637   0.97346
  188  C   1.06134   0.97519   1.00996   0.98147
  189  C   1.08196   0.91027   1.01617   0.94751
  190  C   1.07944   0.95767   0.93720   1.03464
  191  C   1.08111   0.95440   0.92814   1.03339
  192  C   1.08489   0.89901   0.94598   1.01810
  193  C   1.07092   0.96986   0.94096   0.92871
  194  C   1.06488   0.99789   0.96699   0.95954
  195  C   1.06696   0.96743   0.95112   0.96629
  196  C   1.06623   0.97670   0.96721   0.95298
  197  C   1.06102   0.96911   1.03793   0.96552
  198  C   1.06977   0.94404   0.97058   0.94199
  199  C   1.06293   0.96458   1.02080   0.96801
  200  C   1.06108   0.97510   0.98706   1.09254
  201  C   1.05753   0.97504   0.96267   1.06756
  202  C   1.06049   0.97259   0.98230   1.08212
  203  C   1.06517   0.95669   0.96588   0.98846
  204  C   1.08012   0.84464   0.92842   0.96702
  205  C   1.06161   0.96422   1.02560   0.96568
  206  C   1.08320   0.82511   0.92715   0.96712
  207  C   1.08083   0.92008   0.98309   0.85734
  208  C   1.06799   0.96807   0.95006   0.96160
  209  C   1.08092   0.91980   0.85430   0.98190
  210  C   1.07007   0.93388   0.96871   0.94198
  211  C   1.06033   0.96736   1.03707   0.96458
  212  C   1.06606   0.96733   0.98169   0.95504
  213  C   1.07483   0.95579   0.94869   0.97990
  214  C   1.07334   0.98227   0.96740   0.95557
  215  C   1.07343   0.98640   0.96871   0.95383
  216  C   1.07737   0.93502   0.98289   0.94443
  217  C   1.06738   0.98422   0.97708   0.98337
  218  C   1.07420   0.93697   0.94878   0.96181
  219  C   1.06806   0.98109   0.97663   0.98232
  220  C   1.06794   0.98587   0.98525   0.97932
  221  C   1.07339   0.97109   0.95360   0.96049
  222  C   1.06565   0.98476   0.99982   1.00540
  223  C   1.07400   0.96830   0.94677   0.95533
  224  C   1.07989   0.94505   0.96020   0.92691
  225  C   1.07119   0.97561   0.97180   0.96859
  226  C   1.07231   0.96817   0.97321   0.96249
  227  C   1.06965   0.97549   0.97610   0.97329
  228  C   1.06921   0.97626   0.97352   0.98124
  229  C   1.07676   0.95823   0.94589   0.96462
  230  C   1.07263   0.95383   0.96414   0.96499
  231  C   1.06225   0.98887   1.01047   1.02060
  232  C   1.07052   0.97031   0.97111   0.96475
  233  C   1.06164   0.99133   1.02661   1.01416
  234  C   1.06490   1.00132   0.99694   0.98323
  235  C   1.06604   0.98888   1.00888   0.99937
  236  C   1.07038   0.97303   0.96905   0.97348
  237  C   1.06125   1.00880   0.99163   0.99612
  238  C   1.11046   0.81458   0.79466   0.96909
  239  C   1.10583   0.82795   0.80508   0.96887
  240  C   1.06134   1.00230   0.99206   0.99039
  241  C   1.07877   1.02561   1.03396   1.08042
  242  C   1.08769   0.99335   1.02916   1.00874
  243  C   1.08344   1.03329   1.01955   1.02818
  244  C   1.08357   1.03144   1.02630   1.01843
  245  C   1.09126   0.99884   0.95905   1.02702
  246  C   1.07990   1.03045   1.02479   1.06990
  247  C   1.08978   1.00509   0.97508   1.02601
  248  C   1.11518   1.01454   0.99665   0.81666
  249  C   1.09119   0.99384   1.02829   0.95403
  250  C   1.11054   1.01347   0.99967   0.83741
  251  C   1.08506   1.01461   1.02794   1.01734
  252  C   1.07757   1.10974   1.04420   1.03044
  253  C   1.08836   1.02951   0.98437   1.00496
  254  C   1.07786   1.11287   1.04600   1.03276
  255  C   1.07414   1.07518   1.00489   1.14969
  256  C   1.08290   1.02772   1.02216   1.04047
  257  C   1.07338   1.07819   1.15894   1.00532
  258  C   1.07869   1.07964   1.02600   1.03310
  259  C   1.08771   1.00409   0.98958   1.02645
  260  C   1.08443   1.02764   1.02541   1.01731
  261  C   1.08782   0.98498   1.01605   1.02956
  262  C   1.08301   1.02431   1.04161   1.02347
  263  C   1.08419   1.02217   1.03442   1.02528
  264  C   1.08612   1.00199   1.02856   1.02200
  265  C   1.06682   0.96727   0.96726   0.97333
  266  C   1.05955   1.03517   0.97695   0.98562
  267  C   1.06574   0.97902   0.97045   0.96569
  268  C   1.06663   0.97960   0.96588   0.97282
  269  C   1.06206   0.98905   1.02897   0.97458
  270  C   1.06979   0.96713   0.96289   0.95685
  271  C   1.06132   0.98909   1.03562   0.97742
  272  C   1.05950   0.98242   0.98838   1.04576
  273  C   1.06446   0.98528   0.96839   1.00774
  274  C   1.06381   0.97406   0.98176   1.01354
  275  C   1.06473   0.97665   0.96833   0.99424
  276  C   1.06510   0.97360   0.96545   0.96733
  277  C   1.06102   0.97374   1.02842   0.98714
  278  C   1.06192   0.99465   0.97019   0.97138
  279  C   1.07593   0.95938   0.96062   0.93004
  280  C   1.06375   0.97086   0.97598   0.99969
  281  C   1.07674   0.95664   0.92394   0.95963
  282  C   1.06902   0.95335   0.96231   0.96210
  283  C   1.07071   0.97542   0.96196   0.96030
  284  C   1.06436   0.97001   0.99923   0.97802
  285  B   0.58297   0.95282   0.96923   0.94050
  286  B   0.64510   0.84875   0.63350   0.92085
  287  B   0.62725   0.86588   0.72104   0.91997
  288  B   0.58189   0.95370   0.94182   0.96349
  289  H   0.84251
  290  H   0.83966
  291  H   0.84064
  292  H   0.83599
  293  H   0.83285
  294  H   0.83128
  295  H   0.83861
  296  H   0.83841
  297  H   0.88637
  298  H   0.83297
  299  H   0.83791
  300  H   0.86012
  301  H   0.84821
  302  H   0.85482
  303  H   0.83465
  304  H   0.84377
  305  H   0.84482
  306  H   0.83957
  307  H   0.88133
  308  H   0.83949
  309  H   0.84881
  310  H   0.83329
  311  H   0.83094
  312  H   0.84453
  313  H   0.83068
  314  H   0.83753
  315  H   0.83694
  316  H   0.84015
  317  H   0.84622
  318  H   0.83168
  319  H   0.84230
  320  H   0.84851
  321  H   0.86927
  322  H   0.85241
  323  H   0.84202
  324  H   0.82105
  325  H   0.84602
  326  H   0.82019
  327  H   0.82192
  328  H   0.83496
  329  H   0.82422
  330  H   0.83392
  331  H   0.86231
  332  H   0.83957
  333  H   0.83954
  334  H   0.84365
  335  H   0.83547
  336  H   0.83089
  337  H   0.82923
  338  H   0.83320
  339  H   0.83150
  340  H   0.82859
  341  H   0.82858
  342  H   0.82647
  343  H   0.82877
  344  H   0.83527
  345  H   0.83016
  346  H   0.83443
  347  H   0.83152
  348  H   0.82443
  349  H   0.83519
  350  H   0.82515
  351  H   0.82613
  352  H   0.83102
  353  H   0.82757
  354  H   0.83010
  355  H   0.82559
  356  H   0.83006
  357  H   0.84773
  358  H   0.82779
  359  H   0.82798
  360  H   0.84650

 **********************
 *                    *
 * JOB ENDED NORMALLY *
 *                    *
 **********************



 TOTAL JOB TIME:           120.50 SECONDS

 == MOPAC DONE ==
