 *******************************************************************************
 **                                                                           **
 **                              MOPAC v22.1.0                                **
 **                                                                           **
 *******************************************************************************
 **          Digital Object Identifier (DOI): 10.5281/zenodo.6511958          **
 **    Visit the DOI location for information on how to cite this program.    **
 *******************************************************************************

                              PM7 CALCULATION RESULTS

 *******************************************************************************
 *  CALCULATION DONE:                                Thu Feb  1 14:38:33 2024  *
 *  PM7        - The PM7 Hamiltonian to be used
 *  NOOPT      - DO NOT OPTIMIZE ANY COORDINATES
 *
 *
 *
 *                 CHARGE ON SYSTEM = 0
 *
 *
 *
 *  T=         - A TIME OF 172800.0 SECONDS REQUESTED
 *  DUMP=N     - RESTART FILE WRITTEN EVERY 7200.0 SECONDS REQUESTED
 *******************************************************************************
PM7 CHARGE=0 NOOPT


   ATOM   CHEMICAL          X               Y               Z
  NUMBER   SYMBOL      (ANGSTROMS)     (ANGSTROMS)     (ANGSTROMS)

     1       C         17.76606700     14.46125600     21.22974000   
     2       C          5.73106700     21.64374400      2.84026000   
     3       C         18.33893300      9.60874400      9.19474000   
     4       C          6.30393300      2.42625600     14.87526000   
     5       C         21.22974000     17.76606700     14.46125600   
     6       C          9.19474000     18.33893300      9.60874400   
     7       C         14.87526000      6.30393300      2.42625600   
     8       C          2.84026000      5.73106700     21.64374400   
     9       C         14.46125600     21.22974000     17.76606700   
    10       C          2.42625600     14.87526000      6.30393300   
    11       C         21.64374400      2.84026000      5.73106700   
    12       C          9.60874400      9.19474000     18.33893300   
    13       C          8.44375600     23.78356700      8.85776000   
    14       C         20.47875600     12.32143300     15.21224000   
    15       C          3.59124400      0.28643300     20.89276000   
    16       C         15.62624400     11.74856700      3.17724000   
    17       C         11.74856700      3.17724000     15.62624400   
    18       C         23.78356700      8.85776000      8.44375600   
    19       C          0.28643300     20.89276000      3.59124400   
    20       C         12.32143300     15.21224000     20.47875600   
    21       C         15.21224000     20.47875600     12.32143300   
    22       C          3.17724000     15.62624400     11.74856700   
    23       C         20.89276000      3.59124400      0.28643300   
    24       C          8.85776000      8.44375600     23.78356700   
    25       C         18.94068300     14.63696700     20.42098800   
    26       C          6.90568300     21.46803300      3.64901200   
    27       C         17.16431700      9.43303300      8.38598800   
    28       C          5.12931700      2.60196700     15.68401200   
    29       C         20.42098800     18.94068300     14.63696700   
    30       C          8.38598800     17.16431700      9.43303300   
    31       C         15.68401200      5.12931700      2.60196700   
    32       C          3.64901200      6.90568300     21.46803300   
    33       C         14.63696700     20.42098800     18.94068300   
    34       C          2.60196700     15.68401200      5.12931700   
    35       C         21.46803300      3.64901200      6.90568300   
    36       C          9.43303300      8.38598800     17.16431700   
    37       C          8.61946700      0.88818300      9.66651200   
    38       C         20.65446700     11.14681700     14.40348800   
    39       C          3.41553300     23.18181700     21.70151200   
    40       C         15.45053300     12.92318300      2.36848800   
    41       C         12.92318300      2.36848800     15.45053300   
    42       C          0.88818300      9.66651200      8.61946700   
    43       C         23.18181700     21.70151200      3.41553300   
    44       C         11.14681700     14.40348800     20.65446700   
    45       C         14.40348800     20.65446700     11.14681700   
    46       C          2.36848800     15.45053300     12.92318300   
    47       C         21.70151200      3.41553300     23.18181700   
    48       C          9.66651200      8.61946700      0.88818300   
    49       C         14.79342200     17.30392300     20.81332900   
    50       C          2.75842200     18.80107700      3.25667100   
    51       C         21.31157800      6.76607700      8.77832900   
    52       C          9.27657800      5.26892300     15.29167100   
    53       C         20.81332900     14.79342200     17.30392300   
    54       C          8.77832900     21.31157800      6.76607700   
    55       C         15.29167100      9.27657800      5.26892300   
    56       C          3.25667100      2.75842200     18.80107700   
    57       C         17.30392300     20.81332900     14.79342200   
    58       C          5.26892300     15.29167100      9.27657800   
    59       C         18.80107700      3.25667100      2.75842200   
    60       C          6.76607700      8.77832900     21.31157800   
    61       C         11.28642300     20.81092200      9.27417100   
    62       C         23.32142300     15.29407800     14.79582900   
    63       C          0.74857700      3.25907800     21.30917100   
    64       C         12.78357700      8.77592200      2.76082900   
    65       C          8.77592200      2.76082900     12.78357700   
    66       C         20.81092200      9.27417100     11.28642300   
    67       C          3.25907800     21.30917100      0.74857700   
    68       C         15.29407800     14.79582900     23.32142300   
    69       C         14.79582900     23.32142300     15.29407800   
    70       C          2.76082900     12.78357700      8.77592200   
    71       C         21.30917100      0.74857700      3.25907800   
    72       C          9.27417100     11.28642300     20.81092200   
    73       C         15.55884800     15.38313700     22.14199300   
    74       C          3.52384800     20.72186300      1.92800700   
    75       C         20.54615200      8.68686300     10.10699300   
    76       C          8.51115200      3.34813700     13.96300700   
    77       C         22.14199300     15.55884800     15.38313700   
    78       C         10.10699300     20.54615200      8.68686300   
    79       C         13.96300700      8.51115200      3.34813700   
    80       C          1.92800700      3.52384800     20.72186300   
    81       C         15.38313700     22.14199300     15.55884800   
    82       C          3.34813700     13.96300700      8.51115200   
    83       C         20.72186300      1.92800700      3.52384800   
    84       C          8.68686300     10.10699300     20.54615200   
    85       C          9.36563700     21.57634800      7.94550700   
    86       C         21.40063700     14.52865200     16.12449300   
    87       C          2.66936300      2.49365200     19.98050700   
    88       C         14.70436300      9.54134800      4.08949300   
    89       C          9.54134800      4.08949300     14.70436300   
    90       C         21.57634800      7.94550700      9.36563700   
    91       C          2.49365200     19.98050700      2.66936300   
    92       C         14.52865200     16.12449300     21.40063700   
    93       C         16.12449300     21.40063700     14.52865200   
    94       C          4.08949300     14.70436300      9.54134800   
    95       C         19.98050700      2.66936300      2.49365200   
    96       C          7.94550700      9.36563700     21.57634800   
    97       C         17.98510400     19.21748800     19.98050700   
    98       C          5.95010400     16.88751200      4.08949300   
    99       C         18.11989600      4.85251200      7.94550700   
   100       C          6.08489600      7.18248800     16.12449300   
   101       C         19.98050700     17.98510400     19.21748800   
   102       C          7.94550700     18.11989600      4.85251200   
   103       C         16.12449300      6.08489600      7.18248800   
   104       C          4.08949300      5.95010400     16.88751200   
   105       C         13.96300700      1.16498800     12.10239600   
   106       C          1.92800700     10.87001200     11.96760400   
   107       C         22.14199300     22.90501200      0.06739600   
   108       C         10.10699300     13.19998800     24.00260400   
   109       C         13.19998800     24.00260400     10.10699300   
   110       C          1.16498800     12.10239600     13.96300700   
   111       C         22.90501200      0.06739600     22.14199300   
   112       C         10.87001200     11.96760400      1.92800700   
   113       C         11.96760400      1.92800700     10.87001200   
   114       C         24.00260400     10.10699300     13.19998800   
   115       C          0.06739600     22.14199300     22.90501200   
   116       C         12.10239600     13.96300700      1.16498800   
   117       C         18.45687600     16.94528000     20.56300100   
   118       C          6.42187600     19.15972000      3.50699900   
   119       C         17.64812400      7.12472000      8.52800100   
   120       C          5.61312400      4.91028000     15.54199900   
   121       C         20.56300100     18.45687600     16.94528000   
   122       C          8.52800100     17.64812400      7.12472000   
   123       C         15.54199900      5.61312400      4.91028000   
   124       C          3.50699900      6.42187600     19.15972000   
   125       C         16.94528000     20.56300100     18.45687600   
   126       C          4.91028000     15.54199900      5.61312400   
   127       C         19.15972000      3.50699900      6.42187600   
   128       C          7.12472000      8.52800100     17.64812400   
   129       C         10.92778000      0.40437600      9.52449900   
   130       C         22.96278000     11.63062400     14.54550100   
   131       C          1.10722000     23.66562400     21.55949900   
   132       C         13.14222000     12.43937600      2.51050100   
   133       C         12.43937600      2.51050100     13.14222000   
   134       C          0.40437600      9.52449900     10.92778000   
   135       C         23.66562400     21.55949900      1.10722000   
   136       C         11.63062400     14.54550100     22.96278000   
   137       C         14.54550100     22.96278000     11.63062400   
   138       C          2.51050100     13.14222000     12.43937600   
   139       C         21.55949900      1.10722000     23.66562400   
   140       C          9.52449900     10.92778000      0.40437600   
   141       C         16.54812500     19.02011400     20.18991600   
   142       C          4.51312500     17.08488600      3.88008400   
   143       C         19.55687500      5.04988600      8.15491600   
   144       C          7.52187500      6.98511400     15.91508400   
   145       C         20.18991600     16.54812500     19.02011400   
   146       C          8.15491600     19.55687500      5.04988600   
   147       C         15.91508400      7.52187500      6.98511400   
   148       C          3.88008400      4.51312500     17.08488600   
   149       C         19.02011400     20.18991600     16.54812500   
   150       C          6.98511400     15.91508400      7.52187500   
   151       C         17.08488600      3.88008400      4.51312500   
   152       C          5.04988600      8.15491600     19.55687500   
   153       C         13.00261400     22.56562500      9.89758400   
   154       C          0.96761400     13.53937500     14.17241600   
   155       C         23.10238600      1.50437500     21.93258400   
   156       C         11.06738600     10.53062500      2.13741600   
   157       C         10.53062500      2.13741600     11.06738600   
   158       C         22.56562500      9.89758400     13.00261400   
   159       C          1.50437500     21.93258400     23.10238600   
   160       C         13.53937500     14.17241600      0.96761400   
   161       C         14.17241600      0.96761400     13.53937500   
   162       C          2.13741600     11.06738600     10.53062500   
   163       C         21.93258400     23.10238600      1.50437500   
   164       C          9.89758400     13.00261400     22.56562500   
   165       C         23.22514300     21.99035200     23.90873100   
   166       C         11.19014300     14.11464800      0.16126900   
   167       C         12.87985700      2.07964800     11.87373100   
   168       C          0.84485700      9.95535200     12.19626900   
   169       C         23.90873100     23.22514300     21.99035200   
   170       C         11.87373100     12.87985700      2.07964800   
   171       C         12.19626900      0.84485700      9.95535200   
   172       C          0.16126900     11.19014300     14.11464800   
   173       C         21.99035200     23.90873100     23.22514300   
   174       C          9.95535200     12.19626900      0.84485700   
   175       C         14.11464800      0.16126900     11.19014300   
   176       C          2.07964800     11.87373100     12.87985700   
   177       C         15.97285200      5.17264300      6.17876900   
   178       C          3.93785200      6.86235700     17.89123100   
   179       C         20.13214800     18.89735700     18.21376900   
   180       C          8.09714800     17.20764300      5.85623100   
   181       C         17.20764300      5.85623100      8.09714800   
   182       C          5.17264300      6.17876900     15.97285200   
   183       C         18.89735700     18.21376900     20.13214800   
   184       C          6.86235700     17.89123100      3.93785200   
   185       C         17.89123100      3.93785200      6.86235700   
   186       C          5.85623100      8.09714800     17.20764300   
   187       C         18.21376900     20.13214800     18.89735700   
   188       C          6.17876900     15.97285200      5.17264300   
   189       C         17.16672400     16.79123200     21.00829600   
   190       C          5.13172400     19.31376800      3.06170400   
   191       C         18.93827600      7.27876800      8.97329600   
   192       C          6.90327600      4.75623200     15.09670400   
   193       C         21.00829600     17.16672400     16.79123200   
   194       C          8.97329600     18.93827600      7.27876800   
   195       C         15.09670400      6.90327600      4.75623200   
   196       C          3.06170400      5.13172400     19.31376800   
   197       C         16.79123200     21.00829600     17.16672400   
   198       C          4.75623200     15.09670400      6.90327600   
   199       C         19.31376800      3.06170400      5.13172400   
   200       C          7.27876800      8.97329600     18.93827600   
   201       C         10.77373200     23.18422400      9.07920400   
   202       C         22.80873200     12.92077600     14.99079600   
   203       C          1.26126800      0.88577600     21.11420400   
   204       C         13.29626800     11.14922400      2.95579600   
   205       C         11.14922400      2.95579600     13.29626800   
   206       C         23.18422400      9.07920400     10.77373200   
   207       C          0.88577600     21.11420400      1.26126800   
   208       C         12.92077600     14.99079600     22.80873200   
   209       C         14.99079600     22.80873200     12.92077600   
   210       C          2.95579600     13.29626800     11.14922400   
   211       C         21.11420400      1.26126800      0.88577600   
   212       C          9.07920400     10.77373200     23.18422400   
   213       C         16.16300500     17.81420700     20.72908400   
   214       C          4.12800500     18.29079300      3.34091600   
   215       C         19.94199500      6.25579300      8.69408400   
   216       C          7.90699500      5.77920700     15.37591600   
   217       C         20.72908400     16.16300500     17.81420700   
   218       C          8.69408400     19.94199500      6.25579300   
   219       C         15.37591600      7.90699500      5.77920700   
   220       C          3.34091600      4.12800500     18.29079300   
   221       C         17.81420700     20.72908400     16.16300500   
   222       C          5.77920700     15.37591600      7.90699500   
   223       C         18.29079300      3.34091600      4.12800500   
   224       C          6.25579300      8.69408400     19.94199500   
   225       C         11.79670700     22.18050500      9.35841600   
   226       C         23.83170700     13.92449500     14.71158400   
   227       C          0.23829300      1.88949500     21.39341600   
   228       C         12.27329300     10.14550500      2.67658400   
   229       C         10.14550500      2.67658400     12.27329300   
   230       C         22.18050500      9.35841600     11.79670700   
   231       C          1.88949500     21.39341600      0.23829300   
   232       C         13.92449500     14.71158400     23.83170700   
   233       C         14.71158400     23.83170700     13.92449500   
   234       C          2.67658400     12.27329300     10.14550500   
   235       C         21.39341600      0.23829300      1.88949500   
   236       C          9.35841600     11.79670700     22.18050500   
   237       C         19.29932600     15.89101400     20.03346100   
   238       C          7.26432600     20.21398600      4.03653900   
   239       C         16.80567400      8.17898600      7.99846100   
   240       C          4.77067400      3.85601400     16.07153900   
   241       C         20.03346100     19.29932600     15.89101400   
   242       C          7.99846100     16.80567400      8.17898600   
   243       C         16.07153900      4.77067400      3.85601400   
   244       C          4.03653900      7.26432600     20.21398600   
   245       C         15.89101400     20.03346100     19.29932600   
   246       C          3.85601400     16.07153900      4.77067400   
   247       C         20.21398600      4.03653900      7.26432600   
   248       C          8.17898600      7.99846100     16.80567400   
   249       C          9.87351400      1.24682600     10.05403900   
   250       C         21.90851400     10.78817400     14.01596100   
   251       C          2.16148600     22.82317400     22.08903900   
   252       C         14.19648600     13.28182600      1.98096100   
   253       C         13.28182600      1.98096100     14.19648600   
   254       C          1.24682600     10.05403900      9.87351400   
   255       C         22.82317400     22.08903900      2.16148600   
   256       C         10.78817400     14.01596100     21.90851400   
   257       C         14.01596100     21.90851400     10.78817400   
   258       C          1.98096100     14.19648600     13.28182600   
   259       C         22.08903900      2.16148600     22.82317400   
   260       C         10.05403900      9.87351400      1.24682600   
   261       C         16.88029100     15.47701000     21.48728900   
   262       C          4.84529100     20.62799000      2.58271100   
   263       C         19.22470900      8.59299000      9.45228900   
   264       C          7.18970900      3.44201000     14.61771100   
   265       C         21.48728900     16.88029100     15.47701000   
   266       C          9.45228900     19.22470900      8.59299000   
   267       C         14.61771100      7.18970900      3.44201000   
   268       C          2.58271100      4.84529100     20.62799000   
   269       C         15.47701000     21.48728900     16.88029100   
   270       C          3.44201000     14.61771100      7.18970900   
   271       C         20.62799000      2.58271100      4.84529100   
   272       C          8.59299000      9.45228900     19.22470900   
   273       C          9.45951000     22.89779100      8.60021100   
   274       C         21.49451000     13.20720900     15.46978900   
   275       C          2.57549000      1.17220900     20.63521100   
   276       C         14.61049000     10.86279100      3.43478900   
   277       C         10.86279100      3.43478900     14.61049000   
   278       C         22.89779100      8.60021100      9.45951000   
   279       C          1.17220900     20.63521100      2.57549000   
   280       C         13.20720900     15.46978900     21.49451000   
   281       C         15.46978900     21.49451000     13.20720900   
   282       C          3.43478900     14.61049000     10.86279100   
   283       C         20.63521100      2.57549000      1.17220900   
   284       C          8.60021100      9.45951000     22.89779100   
   285       B         19.21748800     19.98050700     17.98510400   
   286       B          7.18248800     16.12449300      6.08489600   
   287       B         16.88751200      4.08949300      5.95010400   
   288       B          4.85251200      7.94550700     18.11989600   
   289       H         13.45031600     21.59801100     17.55184400   
   290       H          1.41531600     14.50698900      6.51815600   
   291       H         22.65468400      2.47198900      5.51684400   
   292       H         10.61968400      9.56301100     18.55315600   
   293       H         17.55184400     13.45031600     21.59801100   
   294       H          5.51684400     22.65468400      2.47198900   
   295       H         18.55315600     10.61968400      9.56301100   
   296       H          6.51815600      1.41531600     14.50698900   
   297       H         21.59801100     17.55184400     13.45031600   
   298       H          9.56301100     18.55315600     10.61968400   
   299       H         14.50698900      6.51815600      1.41531600   
   300       H          2.47198900      5.51684400     22.65468400   
   301       H         15.58051100     19.46781600     12.53565600   
   302       H          3.54551100     16.63718400     11.53434400   
   303       H         20.52448900      4.60218400      0.50065600   
   304       H          8.48948900      7.43281600     23.56934400   
   305       H          7.43281600     23.56934400      8.48948900   
   306       H         19.46781600     12.53565600     15.58051100   
   307       H          4.60218400      0.50065600     20.52448900   
   308       H         16.63718400     11.53434400      3.54551100   
   309       H         11.53434400      3.54551100     16.63718400   
   310       H         23.56934400      8.48948900      7.43281600   
   311       H          0.50065600     20.52448900      4.60218400   
   312       H         12.53565600     15.58051100     19.46781600   
   313       H         13.74878400     20.12733400     19.49910700   
   314       H          1.71378400     15.97766600      4.57089300   
   315       H         22.35621600      3.94266600      7.46410700   
   316       H         10.32121600      8.09233400     16.60589300   
   317       H         19.49910700     13.74878400     20.12733400   
   318       H          7.46410700     22.35621600      3.94266600   
   319       H         16.60589300     10.32121600      8.09233400   
   320       H          4.57089300      1.71378400     15.97766600   
   321       H         20.12733400     19.49910700     13.74878400   
   322       H          8.09233400     16.60589300     10.32121600   
   323       H         15.97766600      4.57089300      1.71378400   
   324       H          3.94266600      7.46410700     22.35621600   
   325       H         14.10983400     19.76628400     10.58839300   
   326       H          2.07483400     16.33871600     13.48160700   
   327       H         21.99516600      4.30371600     22.62339300   
   328       H          9.96016600      7.73128400      1.44660700   
   329       H          7.73128400      1.44660700      9.96016600   
   330       H         19.76628400     10.58839300     14.10983400   
   331       H          4.30371600     22.62339300     21.99516600   
   332       H         16.33871600     13.48160700      2.07483400   
   333       H         13.48160700      2.07483400     16.33871600   
   334       H          1.44660700      9.96016600      7.73128400   
   335       H         22.62339300     21.99516600      4.30371600   
   336       H         10.58839300     14.10983400     19.76628400   
   337       H         14.00392600     17.89845200     20.33674300   
   338       H          1.96892600     18.20654800      3.73325700   
   339       H         22.10107400      6.17154800      8.30174300   
   340       H         10.06607400      5.86345200     15.76825700   
   341       H         20.33674300     14.00392600     17.89845200   
   342       H          8.30174300     22.10107400      6.17154800   
   343       H         15.76825700     10.06607400      5.86345200   
   344       H          3.73325700      1.96892600     18.20654800   
   345       H         17.89845200     20.33674300     14.00392600   
   346       H          5.86345200     15.76825700     10.06607400   
   347       H         18.20654800      3.73325700      1.96892600   
   348       H          6.17154800      8.30174300     22.10107400   
   349       H         11.88095200     20.02142600      9.75075700   
   350       H         23.91595200     16.08357400     14.31924300   
   351       H          0.15404800      4.04857400     21.78575700   
   352       H         12.18904800      7.98642600      2.28424300   
   353       H          7.98642600      2.28424300     12.18904800   
   354       H         20.02142600      9.75075700     11.88095200   
   355       H          4.04857400     21.78575700      0.15404800   
   356       H         16.08357400     14.31924300     23.91595200   
   357       H         14.31924300     23.91595200     16.08357400   
   358       H          2.28424300     12.18904800      7.98642600   
   359       H         21.78575700      0.15404800      4.04857400   
   360       H          9.75075700     11.88095200     20.02142600   
   361      Tv         24.07000000      0.00000000      0.00000000   
   362      Tv          0.00000000     24.07000000      0.00000000   
   363      Tv          0.00000000      0.00000000     24.07000000   


                   THE SYSTEM IS A SOLID


                UNIT CELL TRANSLATION VECTORS

              X                Y              Z
    T1 =    24.0700000      0.0000000      0.0000000
    T2 =     0.0000000     24.0700000      0.0000000
    T3 =     0.0000000      0.0000000     24.0700000


          CARTESIAN COORDINATES 

    NO.       ATOM           X           Y           Z

     1         C         17.7661     14.4613     21.2297
     2         C          5.7311     21.6437      2.8403
     3         C         18.3389      9.6087      9.1947
     4         C          6.3039      2.4263     14.8753
     5         C         21.2297     17.7661     14.4613
     6         C          9.1947     18.3389      9.6087
     7         C         14.8753      6.3039      2.4263
     8         C          2.8403      5.7311     21.6437
     9         C         14.4613     21.2297     17.7661
    10         C          2.4263     14.8753      6.3039
    11         C         21.6437      2.8403      5.7311
    12         C          9.6087      9.1947     18.3389
    13         C          8.4438     23.7836      8.8578
    14         C         20.4788     12.3214     15.2122
    15         C          3.5912      0.2864     20.8928
    16         C         15.6262     11.7486      3.1772
    17         C         11.7486      3.1772     15.6262
    18         C         23.7836      8.8578      8.4438
    19         C          0.2864     20.8928      3.5912
    20         C         12.3214     15.2122     20.4788
    21         C         15.2122     20.4788     12.3214
    22         C          3.1772     15.6262     11.7486
    23         C         20.8928      3.5912      0.2864
    24         C          8.8578      8.4438     23.7836
    25         C         18.9407     14.6370     20.4210
    26         C          6.9057     21.4680      3.6490
    27         C         17.1643      9.4330      8.3860
    28         C          5.1293      2.6020     15.6840
    29         C         20.4210     18.9407     14.6370
    30         C          8.3860     17.1643      9.4330
    31         C         15.6840      5.1293      2.6020
    32         C          3.6490      6.9057     21.4680
    33         C         14.6370     20.4210     18.9407
    34         C          2.6020     15.6840      5.1293
    35         C         21.4680      3.6490      6.9057
    36         C          9.4330      8.3860     17.1643
    37         C          8.6195      0.8882      9.6665
    38         C         20.6545     11.1468     14.4035
    39         C          3.4155     23.1818     21.7015
    40         C         15.4505     12.9232      2.3685
    41         C         12.9232      2.3685     15.4505
    42         C          0.8882      9.6665      8.6195
    43         C         23.1818     21.7015      3.4155
    44         C         11.1468     14.4035     20.6545
    45         C         14.4035     20.6545     11.1468
    46         C          2.3685     15.4505     12.9232
    47         C         21.7015      3.4155     23.1818
    48         C          9.6665      8.6195      0.8882
    49         C         14.7934     17.3039     20.8133
    50         C          2.7584     18.8011      3.2567
    51         C         21.3116      6.7661      8.7783
    52         C          9.2766      5.2689     15.2917
    53         C         20.8133     14.7934     17.3039
    54         C          8.7783     21.3116      6.7661
    55         C         15.2917      9.2766      5.2689
    56         C          3.2567      2.7584     18.8011
    57         C         17.3039     20.8133     14.7934
    58         C          5.2689     15.2917      9.2766
    59         C         18.8011      3.2567      2.7584
    60         C          6.7661      8.7783     21.3116
    61         C         11.2864     20.8109      9.2742
    62         C         23.3214     15.2941     14.7958
    63         C          0.7486      3.2591     21.3092
    64         C         12.7836      8.7759      2.7608
    65         C          8.7759      2.7608     12.7836
    66         C         20.8109      9.2742     11.2864
    67         C          3.2591     21.3092      0.7486
    68         C         15.2941     14.7958     23.3214
    69         C         14.7958     23.3214     15.2941
    70         C          2.7608     12.7836      8.7759
    71         C         21.3092      0.7486      3.2591
    72         C          9.2742     11.2864     20.8109
    73         C         15.5588     15.3831     22.1420
    74         C          3.5238     20.7219      1.9280
    75         C         20.5462      8.6869     10.1070
    76         C          8.5112      3.3481     13.9630
    77         C         22.1420     15.5588     15.3831
    78         C         10.1070     20.5462      8.6869
    79         C         13.9630      8.5112      3.3481
    80         C          1.9280      3.5238     20.7219
    81         C         15.3831     22.1420     15.5588
    82         C          3.3481     13.9630      8.5112
    83         C         20.7219      1.9280      3.5238
    84         C          8.6869     10.1070     20.5462
    85         C          9.3656     21.5763      7.9455
    86         C         21.4006     14.5287     16.1245
    87         C          2.6694      2.4937     19.9805
    88         C         14.7044      9.5413      4.0895
    89         C          9.5413      4.0895     14.7044
    90         C         21.5763      7.9455      9.3656
    91         C          2.4937     19.9805      2.6694
    92         C         14.5287     16.1245     21.4006
    93         C         16.1245     21.4006     14.5287
    94         C          4.0895     14.7044      9.5413
    95         C         19.9805      2.6694      2.4937
    96         C          7.9455      9.3656     21.5763
    97         C         17.9851     19.2175     19.9805
    98         C          5.9501     16.8875      4.0895
    99         C         18.1199      4.8525      7.9455
   100         C          6.0849      7.1825     16.1245
   101         C         19.9805     17.9851     19.2175
   102         C          7.9455     18.1199      4.8525
   103         C         16.1245      6.0849      7.1825
   104         C          4.0895      5.9501     16.8875
   105         C         13.9630      1.1650     12.1024
   106         C          1.9280     10.8700     11.9676
   107         C         22.1420     22.9050      0.0674
   108         C         10.1070     13.2000     24.0026
   109         C         13.2000     24.0026     10.1070
   110         C          1.1650     12.1024     13.9630
   111         C         22.9050      0.0674     22.1420
   112         C         10.8700     11.9676      1.9280
   113         C         11.9676      1.9280     10.8700
   114         C         24.0026     10.1070     13.2000
   115         C          0.0674     22.1420     22.9050
   116         C         12.1024     13.9630      1.1650
   117         C         18.4569     16.9453     20.5630
   118         C          6.4219     19.1597      3.5070
   119         C         17.6481      7.1247      8.5280
   120         C          5.6131      4.9103     15.5420
   121         C         20.5630     18.4569     16.9453
   122         C          8.5280     17.6481      7.1247
   123         C         15.5420      5.6131      4.9103
   124         C          3.5070      6.4219     19.1597
   125         C         16.9453     20.5630     18.4569
   126         C          4.9103     15.5420      5.6131
   127         C         19.1597      3.5070      6.4219
   128         C          7.1247      8.5280     17.6481
   129         C         10.9278      0.4044      9.5245
   130         C         22.9628     11.6306     14.5455
   131         C          1.1072     23.6656     21.5595
   132         C         13.1422     12.4394      2.5105
   133         C         12.4394      2.5105     13.1422
   134         C          0.4044      9.5245     10.9278
   135         C         23.6656     21.5595      1.1072
   136         C         11.6306     14.5455     22.9628
   137         C         14.5455     22.9628     11.6306
   138         C          2.5105     13.1422     12.4394
   139         C         21.5595      1.1072     23.6656
   140         C          9.5245     10.9278      0.4044
   141         C         16.5481     19.0201     20.1899
   142         C          4.5131     17.0849      3.8801
   143         C         19.5569      5.0499      8.1549
   144         C          7.5219      6.9851     15.9151
   145         C         20.1899     16.5481     19.0201
   146         C          8.1549     19.5569      5.0499
   147         C         15.9151      7.5219      6.9851
   148         C          3.8801      4.5131     17.0849
   149         C         19.0201     20.1899     16.5481
   150         C          6.9851     15.9151      7.5219
   151         C         17.0849      3.8801      4.5131
   152         C          5.0499      8.1549     19.5569
   153         C         13.0026     22.5656      9.8976
   154         C          0.9676     13.5394     14.1724
   155         C         23.1024      1.5044     21.9326
   156         C         11.0674     10.5306      2.1374
   157         C         10.5306      2.1374     11.0674
   158         C         22.5656      9.8976     13.0026
   159         C          1.5044     21.9326     23.1024
   160         C         13.5394     14.1724      0.9676
   161         C         14.1724      0.9676     13.5394
   162         C          2.1374     11.0674     10.5306
   163         C         21.9326     23.1024      1.5044
   164         C          9.8976     13.0026     22.5656
   165         C         23.2251     21.9904     23.9087
   166         C         11.1901     14.1146      0.1613
   167         C         12.8799      2.0796     11.8737
   168         C          0.8449      9.9554     12.1963
   169         C         23.9087     23.2251     21.9904
   170         C         11.8737     12.8799      2.0796
   171         C         12.1963      0.8449      9.9554
   172         C          0.1613     11.1901     14.1146
   173         C         21.9904     23.9087     23.2251
   174         C          9.9554     12.1963      0.8449
   175         C         14.1146      0.1613     11.1901
   176         C          2.0796     11.8737     12.8799
   177         C         15.9729      5.1726      6.1788
   178         C          3.9379      6.8624     17.8912
   179         C         20.1321     18.8974     18.2138
   180         C          8.0971     17.2076      5.8562
   181         C         17.2076      5.8562      8.0971
   182         C          5.1726      6.1788     15.9729
   183         C         18.8974     18.2138     20.1321
   184         C          6.8624     17.8912      3.9379
   185         C         17.8912      3.9379      6.8624
   186         C          5.8562      8.0971     17.2076
   187         C         18.2138     20.1321     18.8974
   188         C          6.1788     15.9729      5.1726
   189         C         17.1667     16.7912     21.0083
   190         C          5.1317     19.3138      3.0617
   191         C         18.9383      7.2788      8.9733
   192         C          6.9033      4.7562     15.0967
   193         C         21.0083     17.1667     16.7912
   194         C          8.9733     18.9383      7.2788
   195         C         15.0967      6.9033      4.7562
   196         C          3.0617      5.1317     19.3138
   197         C         16.7912     21.0083     17.1667
   198         C          4.7562     15.0967      6.9033
   199         C         19.3138      3.0617      5.1317
   200         C          7.2788      8.9733     18.9383
   201         C         10.7737     23.1842      9.0792
   202         C         22.8087     12.9208     14.9908
   203         C          1.2613      0.8858     21.1142
   204         C         13.2963     11.1492      2.9558
   205         C         11.1492      2.9558     13.2963
   206         C         23.1842      9.0792     10.7737
   207         C          0.8858     21.1142      1.2613
   208         C         12.9208     14.9908     22.8087
   209         C         14.9908     22.8087     12.9208
   210         C          2.9558     13.2963     11.1492
   211         C         21.1142      1.2613      0.8858
   212         C          9.0792     10.7737     23.1842
   213         C         16.1630     17.8142     20.7291
   214         C          4.1280     18.2908      3.3409
   215         C         19.9420      6.2558      8.6941
   216         C          7.9070      5.7792     15.3759
   217         C         20.7291     16.1630     17.8142
   218         C          8.6941     19.9420      6.2558
   219         C         15.3759      7.9070      5.7792
   220         C          3.3409      4.1280     18.2908
   221         C         17.8142     20.7291     16.1630
   222         C          5.7792     15.3759      7.9070
   223         C         18.2908      3.3409      4.1280
   224         C          6.2558      8.6941     19.9420
   225         C         11.7967     22.1805      9.3584
   226         C         23.8317     13.9245     14.7116
   227         C          0.2383      1.8895     21.3934
   228         C         12.2733     10.1455      2.6766
   229         C         10.1455      2.6766     12.2733
   230         C         22.1805      9.3584     11.7967
   231         C          1.8895     21.3934      0.2383
   232         C         13.9245     14.7116     23.8317
   233         C         14.7116     23.8317     13.9245
   234         C          2.6766     12.2733     10.1455
   235         C         21.3934      0.2383      1.8895
   236         C          9.3584     11.7967     22.1805
   237         C         19.2993     15.8910     20.0335
   238         C          7.2643     20.2140      4.0365
   239         C         16.8057      8.1790      7.9985
   240         C          4.7707      3.8560     16.0715
   241         C         20.0335     19.2993     15.8910
   242         C          7.9985     16.8057      8.1790
   243         C         16.0715      4.7707      3.8560
   244         C          4.0365      7.2643     20.2140
   245         C         15.8910     20.0335     19.2993
   246         C          3.8560     16.0715      4.7707
   247         C         20.2140      4.0365      7.2643
   248         C          8.1790      7.9985     16.8057
   249         C          9.8735      1.2468     10.0540
   250         C         21.9085     10.7882     14.0160
   251         C          2.1615     22.8232     22.0890
   252         C         14.1965     13.2818      1.9810
   253         C         13.2818      1.9810     14.1965
   254         C          1.2468     10.0540      9.8735
   255         C         22.8232     22.0890      2.1615
   256         C         10.7882     14.0160     21.9085
   257         C         14.0160     21.9085     10.7882
   258         C          1.9810     14.1965     13.2818
   259         C         22.0890      2.1615     22.8232
   260         C         10.0540      9.8735      1.2468
   261         C         16.8803     15.4770     21.4873
   262         C          4.8453     20.6280      2.5827
   263         C         19.2247      8.5930      9.4523
   264         C          7.1897      3.4420     14.6177
   265         C         21.4873     16.8803     15.4770
   266         C          9.4523     19.2247      8.5930
   267         C         14.6177      7.1897      3.4420
   268         C          2.5827      4.8453     20.6280
   269         C         15.4770     21.4873     16.8803
   270         C          3.4420     14.6177      7.1897
   271         C         20.6280      2.5827      4.8453
   272         C          8.5930      9.4523     19.2247
   273         C          9.4595     22.8978      8.6002
   274         C         21.4945     13.2072     15.4698
   275         C          2.5755      1.1722     20.6352
   276         C         14.6105     10.8628      3.4348
   277         C         10.8628      3.4348     14.6105
   278         C         22.8978      8.6002      9.4595
   279         C          1.1722     20.6352      2.5755
   280         C         13.2072     15.4698     21.4945
   281         C         15.4698     21.4945     13.2072
   282         C          3.4348     14.6105     10.8628
   283         C         20.6352      2.5755      1.1722
   284         C          8.6002      9.4595     22.8978
   285         B         19.2175     19.9805     17.9851
   286         B          7.1825     16.1245      6.0849
   287         B         16.8875      4.0895      5.9501
   288         B          4.8525      7.9455     18.1199
   289         H         13.4503     21.5980     17.5518
   290         H          1.4153     14.5070      6.5182
   291         H         22.6547      2.4720      5.5168
   292         H         10.6197      9.5630     18.5532
   293         H         17.5518     13.4503     21.5980
   294         H          5.5168     22.6547      2.4720
   295         H         18.5532     10.6197      9.5630
   296         H          6.5182      1.4153     14.5070
   297         H         21.5980     17.5518     13.4503
   298         H          9.5630     18.5532     10.6197
   299         H         14.5070      6.5182      1.4153
   300         H          2.4720      5.5168     22.6547
   301         H         15.5805     19.4678     12.5357
   302         H          3.5455     16.6372     11.5343
   303         H         20.5245      4.6022      0.5007
   304         H          8.4895      7.4328     23.5693
   305         H          7.4328     23.5693      8.4895
   306         H         19.4678     12.5357     15.5805
   307         H          4.6022      0.5007     20.5245
   308         H         16.6372     11.5343      3.5455
   309         H         11.5343      3.5455     16.6372
   310         H         23.5693      8.4895      7.4328
   311         H          0.5007     20.5245      4.6022
   312         H         12.5357     15.5805     19.4678
   313         H         13.7488     20.1273     19.4991
   314         H          1.7138     15.9777      4.5709
   315         H         22.3562      3.9427      7.4641
   316         H         10.3212      8.0923     16.6059
   317         H         19.4991     13.7488     20.1273
   318         H          7.4641     22.3562      3.9427
   319         H         16.6059     10.3212      8.0923
   320         H          4.5709      1.7138     15.9777
   321         H         20.1273     19.4991     13.7488
   322         H          8.0923     16.6059     10.3212
   323         H         15.9777      4.5709      1.7138
   324         H          3.9427      7.4641     22.3562
   325         H         14.1098     19.7663     10.5884
   326         H          2.0748     16.3387     13.4816
   327         H         21.9952      4.3037     22.6234
   328         H          9.9602      7.7313      1.4466
   329         H          7.7313      1.4466      9.9602
   330         H         19.7663     10.5884     14.1098
   331         H          4.3037     22.6234     21.9952
   332         H         16.3387     13.4816      2.0748
   333         H         13.4816      2.0748     16.3387
   334         H          1.4466      9.9602      7.7313
   335         H         22.6234     21.9952      4.3037
   336         H         10.5884     14.1098     19.7663
   337         H         14.0039     17.8985     20.3367
   338         H          1.9689     18.2065      3.7333
   339         H         22.1011      6.1715      8.3017
   340         H         10.0661      5.8635     15.7683
   341         H         20.3367     14.0039     17.8985
   342         H          8.3017     22.1011      6.1715
   343         H         15.7683     10.0661      5.8635
   344         H          3.7333      1.9689     18.2065
   345         H         17.8985     20.3367     14.0039
   346         H          5.8635     15.7683     10.0661
   347         H         18.2065      3.7333      1.9689
   348         H          6.1715      8.3017     22.1011
   349         H         11.8810     20.0214      9.7508
   350         H         23.9160     16.0836     14.3192
   351         H          0.1540      4.0486     21.7858
   352         H         12.1890      7.9864      2.2842
   353         H          7.9864      2.2842     12.1890
   354         H         20.0214      9.7508     11.8810
   355         H          4.0486     21.7858      0.1540
   356         H         16.0836     14.3192     23.9160
   357         H         14.3192     23.9160     16.0836
   358         H          2.2842     12.1890      7.9864
   359         H         21.7858      0.1540      4.0486
   360         H          9.7508     11.8810     20.0214

 General Reference for PM7:
 "Optimization of Parameters for Semiempirical Methods VI: More Modifications to the 
 NDDO Approximations and Re-optimization of Parameters", J. J. P. Stewart, J. Mol. Mod., 1:32, 19 (2013)
 https://link.springer.com/article/10.1007/s00894-012-1667-x

           Empirical Formula: C284 H72 B4  =   360 atoms



      RHF CALCULATION, NO. OF DOUBLY OCCUPIED LEVELS = 610


 -------------------------------------------------------------------------------
 PM7 CHARGE=0 NOOPT




     NO PARAMETERS MARKED FOR OPTIMIZATION, SO 1SCF WAS USED  
     SCF FIELD WAS ACHIEVED                                   


                              PM7 CALCULATION
                                                       MOPAC v22.1.0 Linux
                                                       Thu Feb  1 14:40:35 2024




          FINAL HEAT OF FORMATION =       2696.17994 KCAL/MOL =   11280.81688 KJ/MOL
          H.o.F. per unit cell    =        674.04499 KCAL, for 4 unit cells, unit cell = C71 H18 B1



          IONIZATION POTENTIAL    =          6.950668 EV
          HOMO LUMO ENERGIES (EV) =         -6.951 -5.870
          NO. OF FILLED LEVELS    =        610
          MOLECULAR WEIGHT        =       3526.9328

                   THE SYSTEM IS A SOLID


                UNIT CELL TRANSLATION VECTORS

              X                Y              Z
    T1 =    24.0700000      0.0000000      0.0000000
    T2 =     0.0000000     24.0700000      0.0000000
    T3 =     0.0000000      0.0000000     24.0700000

          VOLUME OF UNIT CELL     =      13945.313 CUBIC ANGSTROMS

          DENSITY                 =          0.420 GRAMS/CC
                              A   =         24.070 ANGSTROMS
                              B   =         24.070 ANGSTROMS
                              C   =         24.070 ANGSTROMS
                            ALPHA =         90.000 DEGREES
                            BETA  =         90.000 DEGREES
                            GAMMA =         90.000 DEGREES



          SCF CALCULATIONS        =          1

          WALL-CLOCK TIME         =          2 MINUTES AND 2.109 SECONDS
          COMPUTATION TIME        =          2 MINUTES AND 2.090 SECONDS




   ATOM   CHEMICAL          X               Y               Z
  NUMBER   SYMBOL      (ANGSTROMS)     (ANGSTROMS)     (ANGSTROMS)

     1       C         17.76606700     14.46125600     21.22974000   
     2       C          5.73106700     21.64374400      2.84026000   
     3       C         18.33893300      9.60874400      9.19474000   
     4       C          6.30393300      2.42625600     14.87526000   
     5       C         21.22974000     17.76606700     14.46125600   
     6       C          9.19474000     18.33893300      9.60874400   
     7       C         14.87526000      6.30393300      2.42625600   
     8       C          2.84026000      5.73106700     21.64374400   
     9       C         14.46125600     21.22974000     17.76606700   
    10       C          2.42625600     14.87526000      6.30393300   
    11       C         21.64374400      2.84026000      5.73106700   
    12       C          9.60874400      9.19474000     18.33893300   
    13       C          8.44375600     23.78356700      8.85776000   
    14       C         20.47875600     12.32143300     15.21224000   
    15       C          3.59124400      0.28643300     20.89276000   
    16       C         15.62624400     11.74856700      3.17724000   
    17       C         11.74856700      3.17724000     15.62624400   
    18       C         23.78356700      8.85776000      8.44375600   
    19       C          0.28643300     20.89276000      3.59124400   
    20       C         12.32143300     15.21224000     20.47875600   
    21       C         15.21224000     20.47875600     12.32143300   
    22       C          3.17724000     15.62624400     11.74856700   
    23       C         20.89276000      3.59124400      0.28643300   
    24       C          8.85776000      8.44375600     23.78356700   
    25       C         18.94068300     14.63696700     20.42098800   
    26       C          6.90568300     21.46803300      3.64901200   
    27       C         17.16431700      9.43303300      8.38598800   
    28       C          5.12931700      2.60196700     15.68401200   
    29       C         20.42098800     18.94068300     14.63696700   
    30       C          8.38598800     17.16431700      9.43303300   
    31       C         15.68401200      5.12931700      2.60196700   
    32       C          3.64901200      6.90568300     21.46803300   
    33       C         14.63696700     20.42098800     18.94068300   
    34       C          2.60196700     15.68401200      5.12931700   
    35       C         21.46803300      3.64901200      6.90568300   
    36       C          9.43303300      8.38598800     17.16431700   
    37       C          8.61946700      0.88818300      9.66651200   
    38       C         20.65446700     11.14681700     14.40348800   
    39       C          3.41553300     23.18181700     21.70151200   
    40       C         15.45053300     12.92318300      2.36848800   
    41       C         12.92318300      2.36848800     15.45053300   
    42       C          0.88818300      9.66651200      8.61946700   
    43       C         23.18181700     21.70151200      3.41553300   
    44       C         11.14681700     14.40348800     20.65446700   
    45       C         14.40348800     20.65446700     11.14681700   
    46       C          2.36848800     15.45053300     12.92318300   
    47       C         21.70151200      3.41553300     23.18181700   
    48       C          9.66651200      8.61946700      0.88818300   
    49       C         14.79342200     17.30392300     20.81332900   
    50       C          2.75842200     18.80107700      3.25667100   
    51       C         21.31157800      6.76607700      8.77832900   
    52       C          9.27657800      5.26892300     15.29167100   
    53       C         20.81332900     14.79342200     17.30392300   
    54       C          8.77832900     21.31157800      6.76607700   
    55       C         15.29167100      9.27657800      5.26892300   
    56       C          3.25667100      2.75842200     18.80107700   
    57       C         17.30392300     20.81332900     14.79342200   
    58       C          5.26892300     15.29167100      9.27657800   
    59       C         18.80107700      3.25667100      2.75842200   
    60       C          6.76607700      8.77832900     21.31157800   
    61       C         11.28642300     20.81092200      9.27417100   
    62       C         23.32142300     15.29407800     14.79582900   
    63       C          0.74857700      3.25907800     21.30917100   
    64       C         12.78357700      8.77592200      2.76082900   
    65       C          8.77592200      2.76082900     12.78357700   
    66       C         20.81092200      9.27417100     11.28642300   
    67       C          3.25907800     21.30917100      0.74857700   
    68       C         15.29407800     14.79582900     23.32142300   
    69       C         14.79582900     23.32142300     15.29407800   
    70       C          2.76082900     12.78357700      8.77592200   
    71       C         21.30917100      0.74857700      3.25907800   
    72       C          9.27417100     11.28642300     20.81092200   
    73       C         15.55884800     15.38313700     22.14199300   
    74       C          3.52384800     20.72186300      1.92800700   
    75       C         20.54615200      8.68686300     10.10699300   
    76       C          8.51115200      3.34813700     13.96300700   
    77       C         22.14199300     15.55884800     15.38313700   
    78       C         10.10699300     20.54615200      8.68686300   
    79       C         13.96300700      8.51115200      3.34813700   
    80       C          1.92800700      3.52384800     20.72186300   
    81       C         15.38313700     22.14199300     15.55884800   
    82       C          3.34813700     13.96300700      8.51115200   
    83       C         20.72186300      1.92800700      3.52384800   
    84       C          8.68686300     10.10699300     20.54615200   
    85       C          9.36563700     21.57634800      7.94550700   
    86       C         21.40063700     14.52865200     16.12449300   
    87       C          2.66936300      2.49365200     19.98050700   
    88       C         14.70436300      9.54134800      4.08949300   
    89       C          9.54134800      4.08949300     14.70436300   
    90       C         21.57634800      7.94550700      9.36563700   
    91       C          2.49365200     19.98050700      2.66936300   
    92       C         14.52865200     16.12449300     21.40063700   
    93       C         16.12449300     21.40063700     14.52865200   
    94       C          4.08949300     14.70436300      9.54134800   
    95       C         19.98050700      2.66936300      2.49365200   
    96       C          7.94550700      9.36563700     21.57634800   
    97       C         17.98510400     19.21748800     19.98050700   
    98       C          5.95010400     16.88751200      4.08949300   
    99       C         18.11989600      4.85251200      7.94550700   
   100       C          6.08489600      7.18248800     16.12449300   
   101       C         19.98050700     17.98510400     19.21748800   
   102       C          7.94550700     18.11989600      4.85251200   
   103       C         16.12449300      6.08489600      7.18248800   
   104       C          4.08949300      5.95010400     16.88751200   
   105       C         13.96300700      1.16498800     12.10239600   
   106       C          1.92800700     10.87001200     11.96760400   
   107       C         22.14199300     22.90501200      0.06739600   
   108       C         10.10699300     13.19998800     24.00260400   
   109       C         13.19998800     24.00260400     10.10699300   
   110       C          1.16498800     12.10239600     13.96300700   
   111       C         22.90501200      0.06739600     22.14199300   
   112       C         10.87001200     11.96760400      1.92800700   
   113       C         11.96760400      1.92800700     10.87001200   
   114       C         24.00260400     10.10699300     13.19998800   
   115       C          0.06739600     22.14199300     22.90501200   
   116       C         12.10239600     13.96300700      1.16498800   
   117       C         18.45687600     16.94528000     20.56300100   
   118       C          6.42187600     19.15972000      3.50699900   
   119       C         17.64812400      7.12472000      8.52800100   
   120       C          5.61312400      4.91028000     15.54199900   
   121       C         20.56300100     18.45687600     16.94528000   
   122       C          8.52800100     17.64812400      7.12472000   
   123       C         15.54199900      5.61312400      4.91028000   
   124       C          3.50699900      6.42187600     19.15972000   
   125       C         16.94528000     20.56300100     18.45687600   
   126       C          4.91028000     15.54199900      5.61312400   
   127       C         19.15972000      3.50699900      6.42187600   
   128       C          7.12472000      8.52800100     17.64812400   
   129       C         10.92778000      0.40437600      9.52449900   
   130       C         22.96278000     11.63062400     14.54550100   
   131       C          1.10722000     23.66562400     21.55949900   
   132       C         13.14222000     12.43937600      2.51050100   
   133       C         12.43937600      2.51050100     13.14222000   
   134       C          0.40437600      9.52449900     10.92778000   
   135       C         23.66562400     21.55949900      1.10722000   
   136       C         11.63062400     14.54550100     22.96278000   
   137       C         14.54550100     22.96278000     11.63062400   
   138       C          2.51050100     13.14222000     12.43937600   
   139       C         21.55949900      1.10722000     23.66562400   
   140       C          9.52449900     10.92778000      0.40437600   
   141       C         16.54812500     19.02011400     20.18991600   
   142       C          4.51312500     17.08488600      3.88008400   
   143       C         19.55687500      5.04988600      8.15491600   
   144       C          7.52187500      6.98511400     15.91508400   
   145       C         20.18991600     16.54812500     19.02011400   
   146       C          8.15491600     19.55687500      5.04988600   
   147       C         15.91508400      7.52187500      6.98511400   
   148       C          3.88008400      4.51312500     17.08488600   
   149       C         19.02011400     20.18991600     16.54812500   
   150       C          6.98511400     15.91508400      7.52187500   
   151       C         17.08488600      3.88008400      4.51312500   
   152       C          5.04988600      8.15491600     19.55687500   
   153       C         13.00261400     22.56562500      9.89758400   
   154       C          0.96761400     13.53937500     14.17241600   
   155       C         23.10238600      1.50437500     21.93258400   
   156       C         11.06738600     10.53062500      2.13741600   
   157       C         10.53062500      2.13741600     11.06738600   
   158       C         22.56562500      9.89758400     13.00261400   
   159       C          1.50437500     21.93258400     23.10238600   
   160       C         13.53937500     14.17241600      0.96761400   
   161       C         14.17241600      0.96761400     13.53937500   
   162       C          2.13741600     11.06738600     10.53062500   
   163       C         21.93258400     23.10238600      1.50437500   
   164       C          9.89758400     13.00261400     22.56562500   
   165       C         23.22514300     21.99035200     23.90873100   
   166       C         11.19014300     14.11464800      0.16126900   
   167       C         12.87985700      2.07964800     11.87373100   
   168       C          0.84485700      9.95535200     12.19626900   
   169       C         23.90873100     23.22514300     21.99035200   
   170       C         11.87373100     12.87985700      2.07964800   
   171       C         12.19626900      0.84485700      9.95535200   
   172       C          0.16126900     11.19014300     14.11464800   
   173       C         21.99035200     23.90873100     23.22514300   
   174       C          9.95535200     12.19626900      0.84485700   
   175       C         14.11464800      0.16126900     11.19014300   
   176       C          2.07964800     11.87373100     12.87985700   
   177       C         15.97285200      5.17264300      6.17876900   
   178       C          3.93785200      6.86235700     17.89123100   
   179       C         20.13214800     18.89735700     18.21376900   
   180       C          8.09714800     17.20764300      5.85623100   
   181       C         17.20764300      5.85623100      8.09714800   
   182       C          5.17264300      6.17876900     15.97285200   
   183       C         18.89735700     18.21376900     20.13214800   
   184       C          6.86235700     17.89123100      3.93785200   
   185       C         17.89123100      3.93785200      6.86235700   
   186       C          5.85623100      8.09714800     17.20764300   
   187       C         18.21376900     20.13214800     18.89735700   
   188       C          6.17876900     15.97285200      5.17264300   
   189       C         17.16672400     16.79123200     21.00829600   
   190       C          5.13172400     19.31376800      3.06170400   
   191       C         18.93827600      7.27876800      8.97329600   
   192       C          6.90327600      4.75623200     15.09670400   
   193       C         21.00829600     17.16672400     16.79123200   
   194       C          8.97329600     18.93827600      7.27876800   
   195       C         15.09670400      6.90327600      4.75623200   
   196       C          3.06170400      5.13172400     19.31376800   
   197       C         16.79123200     21.00829600     17.16672400   
   198       C          4.75623200     15.09670400      6.90327600   
   199       C         19.31376800      3.06170400      5.13172400   
   200       C          7.27876800      8.97329600     18.93827600   
   201       C         10.77373200     23.18422400      9.07920400   
   202       C         22.80873200     12.92077600     14.99079600   
   203       C          1.26126800      0.88577600     21.11420400   
   204       C         13.29626800     11.14922400      2.95579600   
   205       C         11.14922400      2.95579600     13.29626800   
   206       C         23.18422400      9.07920400     10.77373200   
   207       C          0.88577600     21.11420400      1.26126800   
   208       C         12.92077600     14.99079600     22.80873200   
   209       C         14.99079600     22.80873200     12.92077600   
   210       C          2.95579600     13.29626800     11.14922400   
   211       C         21.11420400      1.26126800      0.88577600   
   212       C          9.07920400     10.77373200     23.18422400   
   213       C         16.16300500     17.81420700     20.72908400   
   214       C          4.12800500     18.29079300      3.34091600   
   215       C         19.94199500      6.25579300      8.69408400   
   216       C          7.90699500      5.77920700     15.37591600   
   217       C         20.72908400     16.16300500     17.81420700   
   218       C          8.69408400     19.94199500      6.25579300   
   219       C         15.37591600      7.90699500      5.77920700   
   220       C          3.34091600      4.12800500     18.29079300   
   221       C         17.81420700     20.72908400     16.16300500   
   222       C          5.77920700     15.37591600      7.90699500   
   223       C         18.29079300      3.34091600      4.12800500   
   224       C          6.25579300      8.69408400     19.94199500   
   225       C         11.79670700     22.18050500      9.35841600   
   226       C         23.83170700     13.92449500     14.71158400   
   227       C          0.23829300      1.88949500     21.39341600   
   228       C         12.27329300     10.14550500      2.67658400   
   229       C         10.14550500      2.67658400     12.27329300   
   230       C         22.18050500      9.35841600     11.79670700   
   231       C          1.88949500     21.39341600      0.23829300   
   232       C         13.92449500     14.71158400     23.83170700   
   233       C         14.71158400     23.83170700     13.92449500   
   234       C          2.67658400     12.27329300     10.14550500   
   235       C         21.39341600      0.23829300      1.88949500   
   236       C          9.35841600     11.79670700     22.18050500   
   237       C         19.29932600     15.89101400     20.03346100   
   238       C          7.26432600     20.21398600      4.03653900   
   239       C         16.80567400      8.17898600      7.99846100   
   240       C          4.77067400      3.85601400     16.07153900   
   241       C         20.03346100     19.29932600     15.89101400   
   242       C          7.99846100     16.80567400      8.17898600   
   243       C         16.07153900      4.77067400      3.85601400   
   244       C          4.03653900      7.26432600     20.21398600   
   245       C         15.89101400     20.03346100     19.29932600   
   246       C          3.85601400     16.07153900      4.77067400   
   247       C         20.21398600      4.03653900      7.26432600   
   248       C          8.17898600      7.99846100     16.80567400   
   249       C          9.87351400      1.24682600     10.05403900   
   250       C         21.90851400     10.78817400     14.01596100   
   251       C          2.16148600     22.82317400     22.08903900   
   252       C         14.19648600     13.28182600      1.98096100   
   253       C         13.28182600      1.98096100     14.19648600   
   254       C          1.24682600     10.05403900      9.87351400   
   255       C         22.82317400     22.08903900      2.16148600   
   256       C         10.78817400     14.01596100     21.90851400   
   257       C         14.01596100     21.90851400     10.78817400   
   258       C          1.98096100     14.19648600     13.28182600   
   259       C         22.08903900      2.16148600     22.82317400   
   260       C         10.05403900      9.87351400      1.24682600   
   261       C         16.88029100     15.47701000     21.48728900   
   262       C          4.84529100     20.62799000      2.58271100   
   263       C         19.22470900      8.59299000      9.45228900   
   264       C          7.18970900      3.44201000     14.61771100   
   265       C         21.48728900     16.88029100     15.47701000   
   266       C          9.45228900     19.22470900      8.59299000   
   267       C         14.61771100      7.18970900      3.44201000   
   268       C          2.58271100      4.84529100     20.62799000   
   269       C         15.47701000     21.48728900     16.88029100   
   270       C          3.44201000     14.61771100      7.18970900   
   271       C         20.62799000      2.58271100      4.84529100   
   272       C          8.59299000      9.45228900     19.22470900   
   273       C          9.45951000     22.89779100      8.60021100   
   274       C         21.49451000     13.20720900     15.46978900   
   275       C          2.57549000      1.17220900     20.63521100   
   276       C         14.61049000     10.86279100      3.43478900   
   277       C         10.86279100      3.43478900     14.61049000   
   278       C         22.89779100      8.60021100      9.45951000   
   279       C          1.17220900     20.63521100      2.57549000   
   280       C         13.20720900     15.46978900     21.49451000   
   281       C         15.46978900     21.49451000     13.20720900   
   282       C          3.43478900     14.61049000     10.86279100   
   283       C         20.63521100      2.57549000      1.17220900   
   284       C          8.60021100      9.45951000     22.89779100   
   285       B         19.21748800     19.98050700     17.98510400   
   286       B          7.18248800     16.12449300      6.08489600   
   287       B         16.88751200      4.08949300      5.95010400   
   288       B          4.85251200      7.94550700     18.11989600   
   289       H         13.45031600     21.59801100     17.55184400   
   290       H          1.41531600     14.50698900      6.51815600   
   291       H         22.65468400      2.47198900      5.51684400   
   292       H         10.61968400      9.56301100     18.55315600   
   293       H         17.55184400     13.45031600     21.59801100   
   294       H          5.51684400     22.65468400      2.47198900   
   295       H         18.55315600     10.61968400      9.56301100   
   296       H          6.51815600      1.41531600     14.50698900   
   297       H         21.59801100     17.55184400     13.45031600   
   298       H          9.56301100     18.55315600     10.61968400   
   299       H         14.50698900      6.51815600      1.41531600   
   300       H          2.47198900      5.51684400     22.65468400   
   301       H         15.58051100     19.46781600     12.53565600   
   302       H          3.54551100     16.63718400     11.53434400   
   303       H         20.52448900      4.60218400      0.50065600   
   304       H          8.48948900      7.43281600     23.56934400   
   305       H          7.43281600     23.56934400      8.48948900   
   306       H         19.46781600     12.53565600     15.58051100   
   307       H          4.60218400      0.50065600     20.52448900   
   308       H         16.63718400     11.53434400      3.54551100   
   309       H         11.53434400      3.54551100     16.63718400   
   310       H         23.56934400      8.48948900      7.43281600   
   311       H          0.50065600     20.52448900      4.60218400   
   312       H         12.53565600     15.58051100     19.46781600   
   313       H         13.74878400     20.12733400     19.49910700   
   314       H          1.71378400     15.97766600      4.57089300   
   315       H         22.35621600      3.94266600      7.46410700   
   316       H         10.32121600      8.09233400     16.60589300   
   317       H         19.49910700     13.74878400     20.12733400   
   318       H          7.46410700     22.35621600      3.94266600   
   319       H         16.60589300     10.32121600      8.09233400   
   320       H          4.57089300      1.71378400     15.97766600   
   321       H         20.12733400     19.49910700     13.74878400   
   322       H          8.09233400     16.60589300     10.32121600   
   323       H         15.97766600      4.57089300      1.71378400   
   324       H          3.94266600      7.46410700     22.35621600   
   325       H         14.10983400     19.76628400     10.58839300   
   326       H          2.07483400     16.33871600     13.48160700   
   327       H         21.99516600      4.30371600     22.62339300   
   328       H          9.96016600      7.73128400      1.44660700   
   329       H          7.73128400      1.44660700      9.96016600   
   330       H         19.76628400     10.58839300     14.10983400   
   331       H          4.30371600     22.62339300     21.99516600   
   332       H         16.33871600     13.48160700      2.07483400   
   333       H         13.48160700      2.07483400     16.33871600   
   334       H          1.44660700      9.96016600      7.73128400   
   335       H         22.62339300     21.99516600      4.30371600   
   336       H         10.58839300     14.10983400     19.76628400   
   337       H         14.00392600     17.89845200     20.33674300   
   338       H          1.96892600     18.20654800      3.73325700   
   339       H         22.10107400      6.17154800      8.30174300   
   340       H         10.06607400      5.86345200     15.76825700   
   341       H         20.33674300     14.00392600     17.89845200   
   342       H          8.30174300     22.10107400      6.17154800   
   343       H         15.76825700     10.06607400      5.86345200   
   344       H          3.73325700      1.96892600     18.20654800   
   345       H         17.89845200     20.33674300     14.00392600   
   346       H          5.86345200     15.76825700     10.06607400   
   347       H         18.20654800      3.73325700      1.96892600   
   348       H          6.17154800      8.30174300     22.10107400   
   349       H         11.88095200     20.02142600      9.75075700   
   350       H         23.91595200     16.08357400     14.31924300   
   351       H          0.15404800      4.04857400     21.78575700   
   352       H         12.18904800      7.98642600      2.28424300   
   353       H          7.98642600      2.28424300     12.18904800   
   354       H         20.02142600      9.75075700     11.88095200   
   355       H          4.04857400     21.78575700      0.15404800   
   356       H         16.08357400     14.31924300     23.91595200   
   357       H         14.31924300     23.91595200     16.08357400   
   358       H          2.28424300     12.18904800      7.98642600   
   359       H         21.78575700      0.15404800      4.04857400   
   360       H          9.75075700     11.88095200     20.02142600   
   361      Tv         24.07000000      0.00000000      0.00000000   
   362      Tv          0.00000000     24.07000000      0.00000000   
   363      Tv          0.00000000      0.00000000     24.07000000   

                             CARTESIAN COORDINATES

   1    C       17.766067000    14.461256000    21.229740000
   2    C        5.731067000    21.643744000     2.840260000
   3    C       18.338933000     9.608744000     9.194740000
   4    C        6.303933000     2.426256000    14.875260000
   5    C       21.229740000    17.766067000    14.461256000
   6    C        9.194740000    18.338933000     9.608744000
   7    C       14.875260000     6.303933000     2.426256000
   8    C        2.840260000     5.731067000    21.643744000
   9    C       14.461256000    21.229740000    17.766067000
  10    C        2.426256000    14.875260000     6.303933000
  11    C       21.643744000     2.840260000     5.731067000
  12    C        9.608744000     9.194740000    18.338933000
  13    C        8.443756000    23.783567000     8.857760000
  14    C       20.478756000    12.321433000    15.212240000
  15    C        3.591244000     0.286433000    20.892760000
  16    C       15.626244000    11.748567000     3.177240000
  17    C       11.748567000     3.177240000    15.626244000
  18    C       23.783567000     8.857760000     8.443756000
  19    C        0.286433000    20.892760000     3.591244000
  20    C       12.321433000    15.212240000    20.478756000
  21    C       15.212240000    20.478756000    12.321433000
  22    C        3.177240000    15.626244000    11.748567000
  23    C       20.892760000     3.591244000     0.286433000
  24    C        8.857760000     8.443756000    23.783567000
  25    C       18.940683000    14.636967000    20.420988000
  26    C        6.905683000    21.468033000     3.649012000
  27    C       17.164317000     9.433033000     8.385988000
  28    C        5.129317000     2.601967000    15.684012000
  29    C       20.420988000    18.940683000    14.636967000
  30    C        8.385988000    17.164317000     9.433033000
  31    C       15.684012000     5.129317000     2.601967000
  32    C        3.649012000     6.905683000    21.468033000
  33    C       14.636967000    20.420988000    18.940683000
  34    C        2.601967000    15.684012000     5.129317000
  35    C       21.468033000     3.649012000     6.905683000
  36    C        9.433033000     8.385988000    17.164317000
  37    C        8.619467000     0.888183000     9.666512000
  38    C       20.654467000    11.146817000    14.403488000
  39    C        3.415533000    23.181817000    21.701512000
  40    C       15.450533000    12.923183000     2.368488000
  41    C       12.923183000     2.368488000    15.450533000
  42    C        0.888183000     9.666512000     8.619467000
  43    C       23.181817000    21.701512000     3.415533000
  44    C       11.146817000    14.403488000    20.654467000
  45    C       14.403488000    20.654467000    11.146817000
  46    C        2.368488000    15.450533000    12.923183000
  47    C       21.701512000     3.415533000    23.181817000
  48    C        9.666512000     8.619467000     0.888183000
  49    C       14.793422000    17.303923000    20.813329000
  50    C        2.758422000    18.801077000     3.256671000
  51    C       21.311578000     6.766077000     8.778329000
  52    C        9.276578000     5.268923000    15.291671000
  53    C       20.813329000    14.793422000    17.303923000
  54    C        8.778329000    21.311578000     6.766077000
  55    C       15.291671000     9.276578000     5.268923000
  56    C        3.256671000     2.758422000    18.801077000
  57    C       17.303923000    20.813329000    14.793422000
  58    C        5.268923000    15.291671000     9.276578000
  59    C       18.801077000     3.256671000     2.758422000
  60    C        6.766077000     8.778329000    21.311578000
  61    C       11.286423000    20.810922000     9.274171000
  62    C       23.321423000    15.294078000    14.795829000
  63    C        0.748577000     3.259078000    21.309171000
  64    C       12.783577000     8.775922000     2.760829000
  65    C        8.775922000     2.760829000    12.783577000
  66    C       20.810922000     9.274171000    11.286423000
  67    C        3.259078000    21.309171000     0.748577000
  68    C       15.294078000    14.795829000    23.321423000
  69    C       14.795829000    23.321423000    15.294078000
  70    C        2.760829000    12.783577000     8.775922000
  71    C       21.309171000     0.748577000     3.259078000
  72    C        9.274171000    11.286423000    20.810922000
  73    C       15.558848000    15.383137000    22.141993000
[...]
  293          H           0.160530        0.8395     0.83947
  294          H           0.160530        0.8395     0.83947
  295          H           0.160530        0.8395     0.83947
  296          H           0.160530        0.8395     0.83947
  297          H           0.156864        0.8431     0.84314
  298          H           0.156864        0.8431     0.84314
  299          H           0.156864        0.8431     0.84314
  300          H           0.156864        0.8431     0.84314
  301          H           0.160389        0.8396     0.83961
  302          H           0.160389        0.8396     0.83961
  303          H           0.160389        0.8396     0.83961
  304          H           0.160389        0.8396     0.83961
  305          H           0.160153        0.8398     0.83985
  306          H           0.160153        0.8398     0.83985
  307          H           0.160153        0.8398     0.83985
  308          H           0.160153        0.8398     0.83985
  309          H           0.160282        0.8397     0.83972
  310          H           0.160282        0.8397     0.83972
  311          H           0.160282        0.8397     0.83972
  312          H           0.160282        0.8397     0.83972
  313          H           0.164021        0.8360     0.83598
  314          H           0.164021        0.8360     0.83598
  315          H           0.164021        0.8360     0.83598
  316          H           0.164021        0.8360     0.83598
  317          H           0.164214        0.8358     0.83579
  318          H           0.164214        0.8358     0.83579
  319          H           0.164214        0.8358     0.83579
  320          H           0.164214        0.8358     0.83579
  321          H           0.158245        0.8418     0.84176
  322          H           0.158245        0.8418     0.84176
  323          H           0.158245        0.8418     0.84176
  324          H           0.158245        0.8418     0.84176
  325          H           0.163086        0.8369     0.83691
  326          H           0.163086        0.8369     0.83691
  327          H           0.163086        0.8369     0.83691
  328          H           0.163086        0.8369     0.83691
  329          H           0.159953        0.8400     0.84005
  330          H           0.159953        0.8400     0.84005
  331          H           0.159953        0.8400     0.84005
  332          H           0.159953        0.8400     0.84005
  333          H           0.160760        0.8392     0.83924
  334          H           0.160760        0.8392     0.83924
  335          H           0.160760        0.8392     0.83924
  336          H           0.160760        0.8392     0.83924
  337          H           0.169748        0.8303     0.83025
  338          H           0.169748        0.8303     0.83025
  339          H           0.169748        0.8303     0.83025
  340          H           0.169748        0.8303     0.83025
  341          H           0.166988        0.8330     0.83301
  342          H           0.166988        0.8330     0.83301
  343          H           0.166988        0.8330     0.83301
  344          H           0.166988        0.8330     0.83301
  345          H           0.171823        0.8282     0.82818
  346          H           0.171823        0.8282     0.82818
  347          H           0.171823        0.8282     0.82818
  348          H           0.171823        0.8282     0.82818
  349          H           0.170161        0.8298     0.82984
  350          H           0.170161        0.8298     0.82984
  351          H           0.170161        0.8298     0.82984
  352          H           0.170161        0.8298     0.82984
  353          H           0.169727        0.8303     0.83027
  354          H           0.169727        0.8303     0.83027
  355          H           0.169727        0.8303     0.83027
  356          H           0.169727        0.8303     0.83027
  357          H           0.169351        0.8306     0.83065
  358          H           0.169351        0.8306     0.83065
  359          H           0.169351        0.8306     0.83065
  360          H           0.169351        0.8306     0.83065


          ATOMIC ORBITAL ELECTRON POPULATIONS

     Atom    s        px        py        pz   
    1  C   1.08835   0.97705   1.07055   0.98828
    2  C   1.08835   0.97705   1.07055   0.98828
    3  C   1.08835   0.97705   1.07055   0.98828
    4  C   1.08835   0.97705   1.07055   0.98828
    5  C   1.08608   1.00101   0.98434   1.06898
    6  C   1.08608   1.00101   0.98434   1.06898
    7  C   1.08608   1.00101   0.98434   1.06898
    8  C   1.08608   1.00101   0.98434   1.06898
    9  C   1.09071   1.06947   0.97404   0.96893
   10  C   1.09071   1.06947   0.97404   0.96893
   11  C   1.09071   1.06947   0.97404   0.96893
   12  C   1.09071   1.06947   0.97404   0.96893
   13  C   1.08453   1.07333   0.98788   1.01428
   14  C   1.08453   1.07333   0.98788   1.01428
   15  C   1.08453   1.07333   0.98788   1.01428
   16  C   1.08453   1.07333   0.98788   1.01428
   17  C   1.08487   0.98662   1.01140   1.07267
   18  C   1.08487   0.98662   1.01140   1.07267
   19  C   1.08487   0.98662   1.01140   1.07267
   20  C   1.08487   0.98662   1.01140   1.07267
   21  C   1.08585   1.00463   1.07129   0.98378
   22  C   1.08585   1.00463   1.07129   0.98378
   23  C   1.08585   1.00463   1.07129   0.98378
   24  C   1.08585   1.00463   1.07129   0.98378
   25  C   1.08226   1.00871   1.04991   1.01013
   26  C   1.08226   1.00871   1.04991   1.01013
   27  C   1.08226   1.00871   1.04991   1.01013
   28  C   1.08226   1.00871   1.04991   1.01013
   29  C   1.08214   1.01600   1.00878   1.05082
   30  C   1.08214   1.01600   1.00878   1.05082
   31  C   1.08214   1.01600   1.00878   1.05082
   32  C   1.08214   1.01600   1.00878   1.05082
   33  C   1.08067   1.05176   1.02376   1.01665
   34  C   1.08067   1.05176   1.02376   1.01665
   35  C   1.08067   1.05176   1.02376   1.01665
   36  C   1.08067   1.05176   1.02376   1.01665
   37  C   1.08334   1.04520   1.00104   0.99550
   38  C   1.08334   1.04520   1.00104   0.99550
   39  C   1.08334   1.04520   1.00104   0.99550
   40  C   1.08334   1.04520   1.00104   0.99550
   41  C   1.08319   1.00172   0.99690   1.04569
   42  C   1.08319   1.00172   0.99690   1.04569
   43  C   1.08319   1.00172   0.99690   1.04569
   44  C   1.08319   1.00172   0.99690   1.04569
   45  C   1.08290   1.00099   1.04762   1.00365
   46  C   1.08290   1.00099   1.04762   1.00365
   47  C   1.08290   1.00099   1.04762   1.00365
   48  C   1.08290   1.00099   1.04762   1.00365
   49  C   1.08379   1.02682   1.01869   1.02996
   50  C   1.08379   1.02682   1.01869   1.02996
   51  C   1.08379   1.02682   1.01869   1.02996
   52  C   1.08379   1.02682   1.01869   1.02996
   53  C   1.08495   1.01859   1.02778   1.01584
   54  C   1.08495   1.01859   1.02778   1.01584
   55  C   1.08495   1.01859   1.02778   1.01584
   56  C   1.08495   1.01859   1.02778   1.01584
   57  C   1.08932   1.01180   1.00988   1.03789
   58  C   1.08932   1.01180   1.00988   1.03789
   59  C   1.08932   1.01180   1.00988   1.03789
   60  C   1.08932   1.01180   1.00988   1.03789
   61  C   1.08261   1.02171   1.02722   1.04210
   62  C   1.08261   1.02171   1.02722   1.04210
   63  C   1.08261   1.02171   1.02722   1.04210
   64  C   1.08261   1.02171   1.02722   1.04210
   65  C   1.08440   1.02783   1.02475   1.01613
   66  C   1.08440   1.02783   1.02475   1.01613
   67  C   1.08440   1.02783   1.02475   1.01613
   68  C   1.08440   1.02783   1.02475   1.01613
   69  C   1.08563   1.01545   1.01557   1.02769
   70  C   1.08563   1.01545   1.01557   1.02769
   71  C   1.08563   1.01545   1.01557   1.02769
   72  C   1.08563   1.01545   1.01557   1.02769
   73  C   1.06755   0.96477   0.98806   0.97990
   74  C   1.06755   0.96477   0.98806   0.97990
   75  C   1.06755   0.96477   0.98806   0.97990
   76  C   1.06755   0.96477   0.98806   0.97990
   77  C   1.06973   0.97304   0.96639   0.97099
   78  C   1.06973   0.97304   0.96639   0.97099
   79  C   1.06973   0.97304   0.96639   0.97099
   80  C   1.06973   0.97304   0.96639   0.97099
   81  C   1.06812   0.98835   0.97882   0.96695
   82  C   1.06812   0.98835   0.97882   0.96695
   83  C   1.06812   0.98835   0.97882   0.96695
   84  C   1.06812   0.98835   0.97882   0.96695
   85  C   1.06781   0.99231   0.96757   0.98251
   86  C   1.06781   0.99231   0.96757   0.98251
   87  C   1.06781   0.99231   0.96757   0.98251
   88  C   1.06781   0.99231   0.96757   0.98251
   89  C   1.06887   0.96722   0.97771   0.98107
   90  C   1.06887   0.96722   0.97771   0.98107
   91  C   1.06887   0.96722   0.97771   0.98107
   92  C   1.06887   0.96722   0.97771   0.98107
   93  C   1.07028   0.97751   0.97837   0.96735
   94  C   1.07028   0.97751   0.97837   0.96735
   95  C   1.07028   0.97751   0.97837   0.96735
   96  C   1.07028   0.97751   0.97837   0.96735
   97  C   1.07055   0.96271   1.02733   1.03019
   98  C   1.07055   0.96271   1.02733   1.03019
   99  C   1.07055   0.96271   1.02733   1.03019
  100  C   1.07055   0.96271   1.02733   1.03019
  101  C   1.07003   1.01241   0.97056   0.99198
  102  C   1.07003   1.01241   0.97056   0.99198
  103  C   1.07003   1.01241   0.97056   0.99198
  104  C   1.07003   1.01241   0.97056   0.99198
  105  C   1.06962   0.97573   0.97631   0.95960
  106  C   1.06962   0.97573   0.97631   0.95960
  107  C   1.06962   0.97573   0.97631   0.95960
  108  C   1.06962   0.97573   0.97631   0.95960
  109  C   1.07003   0.97195   0.96024   0.97068
  110  C   1.07003   0.97195   0.96024   0.97068
  111  C   1.07003   0.97195   0.96024   0.97068
  112  C   1.07003   0.97195   0.96024   0.97068
  113  C   1.07016   0.95939   0.97152   0.97374
  114  C   1.07016   0.95939   0.97152   0.97374
  115  C   1.07016   0.95939   0.97152   0.97374
  116  C   1.07016   0.95939   0.97152   0.97374
  117  C   1.06590   0.99486   0.99408   1.02960
  118  C   1.06590   0.99486   0.99408   1.02960
  119  C   1.06590   0.99486   0.99408   1.02960
  120  C   1.06590   0.99486   0.99408   1.02960
  121  C   1.07074   0.97559   0.97678   1.00141
  122  C   1.07074   0.97559   0.97678   1.00141
  123  C   1.07074   0.97559   0.97678   1.00141
  124  C   1.07074   0.97559   0.97678   1.00141
  125  C   1.06629   1.00760   1.04926   1.00141
  126  C   1.06629   1.00760   1.04926   1.00141
  127  C   1.06629   1.00760   1.04926   1.00141
  128  C   1.06629   1.00760   1.04926   1.00141
  129  C   1.06596   0.98180   0.98259   0.99208
  130  C   1.06596   0.98180   0.98259   0.99208
  131  C   1.06596   0.98180   0.98259   0.99208
  132  C   1.06596   0.98180   0.98259   0.99208
  133  C   1.06572   0.98315   0.99450   0.98291
  134  C   1.06572   0.98315   0.99450   0.98291
  135  C   1.06572   0.98315   0.99450   0.98291
  136  C   1.06572   0.98315   0.99450   0.98291
  137  C   1.06593   0.99761   0.98444   0.98399
  138  C   1.06593   0.99761   0.98444   0.98399
  139  C   1.06593   0.99761   0.98444   0.98399
  140  C   1.06593   0.99761   0.98444   0.98399
  141  C   1.07535   0.97235   0.97087   0.98923
  142  C   1.07535   0.97235   0.97087   0.98923
  143  C   1.07535   0.97235   0.97087   0.98923
  144  C   1.07535   0.97235   0.97087   0.98923
  145  C   1.07538   0.98885   0.97407   0.96906
  146  C   1.07538   0.98885   0.97407   0.96906
  147  C   1.07538   0.98885   0.97407   0.96906
  148  C   1.07538   0.98885   0.97407   0.96906
  149  C   1.09024   0.94265   0.92542   1.07013
  150  C   1.09024   0.94265   0.92542   1.07013
  151  C   1.09024   0.94265   0.92542   1.07013
  152  C   1.09024   0.94265   0.92542   1.07013
  153  C   1.07178   0.98016   0.96693   1.01273
  154  C   1.07178   0.98016   0.96693   1.01273
  155  C   1.07178   0.98016   0.96693   1.01273
  156  C   1.07178   0.98016   0.96693   1.01273
  157  C   1.07389   0.96775   0.99777   0.97495
  158  C   1.07389   0.96775   0.99777   0.97495
  159  C   1.07389   0.96775   0.99777   0.97495
  160  C   1.07389   0.96775   0.99777   0.97495
  161  C   1.07471   0.99279   0.97278   0.96874
  162  C   1.07471   0.99279   0.97278   0.96874
  163  C   1.07471   0.99279   0.97278   0.96874
  164  C   1.07471   0.99279   0.97278   0.96874
  165  C   1.05607   0.99006   1.01112   0.98047
  166  C   1.05607   0.99006   1.01112   0.98047
  167  C   1.05607   0.99006   1.01112   0.98047
  168  C   1.05607   0.99006   1.01112   0.98047
  169  C   1.05613   0.98094   0.98989   1.01140
  170  C   1.05613   0.98094   0.98989   1.01140
  171  C   1.05613   0.98094   0.98989   1.01140
  172  C   1.05613   0.98094   0.98989   1.01140
  173  C   1.05708   1.00525   0.97912   0.98986
  174  C   1.05708   1.00525   0.97912   0.98986
  175  C   1.05708   1.00525   0.97912   0.98986
  176  C   1.05708   1.00525   0.97912   0.98986
  177  C   1.07777   0.92761   1.04395   0.94493
  178  C   1.07777   0.92761   1.04395   0.94493
  179  C   1.07777   0.92761   1.04395   0.94493
  180  C   1.07777   0.92761   1.04395   0.94493
  181  C   1.07120   0.96447   0.96309   0.90636
  182  C   1.07120   0.96447   0.96309   0.90636
  183  C   1.07120   0.96447   0.96309   0.90636
  184  C   1.07120   0.96447   0.96309   0.90636
  185  C   1.10962   1.02397   0.80879   0.90785
  186  C   1.10962   1.02397   0.80879   0.90785
  187  C   1.10962   1.02397   0.80879   0.90785
  188  C   1.10962   1.02397   0.80879   0.90785
  189  C   1.06620   0.97083   0.97689   0.96986
  190  C   1.06620   0.97083   0.97689   0.96986
  191  C   1.06620   0.97083   0.97689   0.96986
  192  C   1.06620   0.97083   0.97689   0.96986
  193  C   1.06274   1.00173   0.97841   0.97651
  194  C   1.06274   1.00173   0.97841   0.97651
  195  C   1.06274   1.00173   0.97841   0.97651
  196  C   1.06274   1.00173   0.97841   0.97651
  197  C   1.06930   0.96828   0.95456   0.97214
  198  C   1.06930   0.96828   0.95456   0.97214
  199  C   1.06930   0.96828   0.95456   0.97214
  200  C   1.06930   0.96828   0.95456   0.97214
  201  C   1.06166   0.98411   0.97469   1.01313
  202  C   1.06166   0.98411   0.97469   1.01313
  203  C   1.06166   0.98411   0.97469   1.01313
  204  C   1.06166   0.98411   0.97469   1.01313
  205  C   1.06143   0.97472   1.01042   0.98221
  206  C   1.06143   0.97472   1.01042   0.98221
  207  C   1.06143   0.97472   1.01042   0.98221
  208  C   1.06143   0.97472   1.01042   0.98221
  209  C   1.06117   1.00957   0.98073   0.97453
  210  C   1.06117   1.00957   0.98073   0.97453
  211  C   1.06117   1.00957   0.98073   0.97453
  212  C   1.06117   1.00957   0.98073   0.97453
  213  C   1.06580   0.96799   0.95877   0.99005
  214  C   1.06580   0.96799   0.95877   0.99005
  215  C   1.06580   0.96799   0.95877   0.99005
  216  C   1.06580   0.96799   0.95877   0.99005
  217  C   1.06442   0.99536   0.96707   0.95563
  218  C   1.06442   0.99536   0.96707   0.95563
  219  C   1.06442   0.99536   0.96707   0.95563
  220  C   1.06442   0.99536   0.96707   0.95563
  221  C   1.07189   0.97410   0.96467   0.95053
  222  C   1.07189   0.97410   0.96467   0.95053
  223  C   1.07189   0.97410   0.96467   0.95053
  224  C   1.07189   0.97410   0.96467   0.95053
  225  C   1.06745   0.95055   0.96747   0.96468
  226  C   1.06745   0.95055   0.96747   0.96468
  227  C   1.06745   0.95055   0.96747   0.96468
  228  C   1.06745   0.95055   0.96747   0.96468
  229  C   1.06578   0.96641   0.98189   0.95498
  230  C   1.06578   0.96641   0.98189   0.95498
  231  C   1.06578   0.96641   0.98189   0.95498
  232  C   1.06578   0.96641   0.98189   0.95498
  233  C   1.06566   0.98554   0.95605   0.96665
  234  C   1.06566   0.98554   0.95605   0.96665
  235  C   1.06566   0.98554   0.95605   0.96665
  236  C   1.06566   0.98554   0.95605   0.96665
  237  C   1.07355   0.96624   0.97081   0.95679
  238  C   1.07355   0.96624   0.97081   0.95679
  239  C   1.07355   0.96624   0.97081   0.95679
  240  C   1.07355   0.96624   0.97081   0.95679
  241  C   1.07690   0.95862   0.96687   0.96595
  242  C   1.07690   0.95862   0.96687   0.96595
  243  C   1.07690   0.95862   0.96687   0.96595
  244  C   1.07690   0.95862   0.96687   0.96595
  245  C   1.07635   0.97384   0.93790   0.95329
  246  C   1.07635   0.97384   0.93790   0.95329
  247  C   1.07635   0.97384   0.93790   0.95329
  248  C   1.07635   0.97384   0.93790   0.95329
  249  C   1.06890   0.97579   0.97889   0.97670
  250  C   1.06890   0.97579   0.97889   0.97670
  251  C   1.06890   0.97579   0.97889   0.97670
  252  C   1.06890   0.97579   0.97889   0.97670
  253  C   1.06945   0.97747   0.97534   0.97582
  254  C   1.06945   0.97747   0.97534   0.97582
  255  C   1.06945   0.97747   0.97534   0.97582
  256  C   1.06945   0.97747   0.97534   0.97582
  257  C   1.07062   0.96719   0.97346   0.97153
  258  C   1.07062   0.96719   0.97346   0.97153
  259  C   1.07062   0.96719   0.97346   0.97153
  260  C   1.07062   0.96719   0.97346   0.97153
  261  C   1.06408   0.97545   0.97789   1.00813
  262  C   1.06408   0.97545   0.97789   1.00813
  263  C   1.06408   0.97545   0.97789   1.00813
  264  C   1.06408   0.97545   0.97789   1.00813
  265  C   1.06335   1.00946   0.97162   0.98055
  266  C   1.06335   1.00946   0.97162   0.98055
  267  C   1.06335   1.00946   0.97162   0.98055
  268  C   1.06335   1.00946   0.97162   0.98055
  269  C   1.06520   0.98405   1.00862   0.97566
  270  C   1.06520   0.98405   1.00862   0.97566
  271  C   1.06520   0.98405   1.00862   0.97566
  272  C   1.06520   0.98405   1.00862   0.97566
  273  C   1.06549   0.97405   0.96754   0.98681
  274  C   1.06549   0.97405   0.96754   0.98681
  275  C   1.06549   0.97405   0.96754   0.98681
  276  C   1.06549   0.97405   0.96754   0.98681
  277  C   1.06508   0.96792   0.99173   0.97626
  278  C   1.06508   0.96792   0.99173   0.97626
  279  C   1.06508   0.96792   0.99173   0.97626
  280  C   1.06508   0.96792   0.99173   0.97626
  281  C   1.06446   0.99897   0.97697   0.97004
  282  C   1.06446   0.99897   0.97697   0.97004
  283  C   1.06446   0.99897   0.97697   0.97004
  284  C   1.06446   0.99897   0.97697   0.97004
  285  B   0.61378   0.86366   0.76972   0.93524
  286  B   0.61378   0.86366   0.76972   0.93524
  287  B   0.61378   0.86366   0.76972   0.93524
  288  B   0.61378   0.86366   0.76972   0.93524
  289  H   0.84061
  290  H   0.84061
  291  H   0.84061
  292  H   0.84061
  293  H   0.83947
  294  H   0.83947
  295  H   0.83947
  296  H   0.83947
  297  H   0.84314
  298  H   0.84314
  299  H   0.84314
  300  H   0.84314
  301  H   0.83961
  302  H   0.83961
  303  H   0.83961
  304  H   0.83961
  305  H   0.83985
  306  H   0.83985
  307  H   0.83985
  308  H   0.83985
  309  H   0.83972
  310  H   0.83972
  311  H   0.83972
  312  H   0.83972
  313  H   0.83598
  314  H   0.83598
  315  H   0.83598
  316  H   0.83598
  317  H   0.83579
  318  H   0.83579
  319  H   0.83579
  320  H   0.83579
  321  H   0.84176
  322  H   0.84176
  323  H   0.84176
  324  H   0.84176
  325  H   0.83691
  326  H   0.83691
  327  H   0.83691
  328  H   0.83691
  329  H   0.84005
  330  H   0.84005
  331  H   0.84005
  332  H   0.84005
  333  H   0.83924
  334  H   0.83924
  335  H   0.83924
  336  H   0.83924
  337  H   0.83025
  338  H   0.83025
  339  H   0.83025
  340  H   0.83025
  341  H   0.83301
  342  H   0.83301
  343  H   0.83301
  344  H   0.83301
  345  H   0.82818
  346  H   0.82818
  347  H   0.82818
  348  H   0.82818
  349  H   0.82984
  350  H   0.82984
  351  H   0.82984
  352  H   0.82984
  353  H   0.83027
  354  H   0.83027
  355  H   0.83027
  356  H   0.83027
  357  H   0.83065
  358  H   0.83065
  359  H   0.83065
  360  H   0.83065

 **********************
 *                    *
 * JOB ENDED NORMALLY *
 *                    *
 **********************



 TOTAL JOB TIME:           122.16 SECONDS

 == MOPAC DONE ==
