 *******************************************************************************
 **                                                                           **
 **                              MOPAC v22.1.0                                **
 **                                                                           **
 *******************************************************************************
 **          Digital Object Identifier (DOI): 10.5281/zenodo.6511958          **
 **    Visit the DOI location for information on how to cite this program.    **
 *******************************************************************************

                              PM7 CALCULATION RESULTS

 *******************************************************************************
 *  CALCULATION DONE:                                Thu Feb  1 15:34:51 2024  *
 *  PM7        - The PM7 Hamiltonian to be used
 *  NOOPT      - DO NOT OPTIMIZE ANY COORDINATES
 *
 *
 *
 *                 CHARGE ON SYSTEM = 0
 *
 *
 *
 *  T=         - A TIME OF 172800.0 SECONDS REQUESTED
 *  DUMP=N     - RESTART FILE WRITTEN EVERY 7200.0 SECONDS REQUESTED
 *******************************************************************************
PM7 CHARGE=0 NOOPT


   ATOM   CHEMICAL          X               Y               Z
  NUMBER   SYMBOL      (ANGSTROMS)     (ANGSTROMS)     (ANGSTROMS)

     1       N         19.21748800     19.98050700     17.98510400   
     2       N         16.88751200      4.08949300      5.95010400   
     3       N         18.11989600      4.85251200      7.94550700   
     4       N          5.95010400     16.88751200      4.08949300   
     5       N          7.94550700     18.11989600      4.85251200   
     6       N         17.98510400     19.21748800     19.98050700   
     7       N          6.08489600      7.18248800     16.12449300   
     8       N         19.98050700     17.98510400     19.21748800   
     9       N         16.12449300      6.08489600      7.18248800   
    10       N          4.08949300      5.95010400     16.88751200   
    11       N          7.18248800     16.12449300      6.08489600   
    12       N          4.85251200      7.94550700     18.11989600   
    13       C         17.76606700     14.46125600     21.22974000   
    14       C         18.33893300      9.60874400      9.19474000   
    15       C         14.87526000      6.30393300      2.42625600   
    16       C          9.19474000     18.33893300      9.60874400   
    17       C          2.42625600     14.87526000      6.30393300   
    18       C         21.22974000     17.76606700     14.46125600   
    19       C          2.84026000      5.73106700     21.64374400   
    20       C         14.46125600     21.22974000     17.76606700   
    21       C         21.64374400      2.84026000      5.73106700   
    22       C          9.60874400      9.19474000     18.33893300   
    23       C          5.73106700     21.64374400      2.84026000   
    24       C          6.30393300      2.42625600     14.87526000   
    25       C          8.44375600     23.78356700      8.85776000   
    26       C          3.59124400      0.28643300     20.89276000   
    27       C          3.17724000     15.62624400     11.74856700   
    28       C         20.89276000      3.59124400      0.28643300   
    29       C         11.74856700      3.17724000     15.62624400   
    30       C          8.85776000      8.44375600     23.78356700   
    31       C         15.21224000     20.47875600     12.32143300   
    32       C         23.78356700      8.85776000      8.44375600   
    33       C         12.32143300     15.21224000     20.47875600   
    34       C          0.28643300     20.89276000      3.59124400   
    35       C         20.47875600     12.32143300     15.21224000   
    36       C         15.62624400     11.74856700      3.17724000   
    37       C         18.94068300     14.63696700     20.42098800   
    38       C         17.16431700      9.43303300      8.38598800   
    39       C         15.68401200      5.12931700      2.60196700   
    40       C          8.38598800     17.16431700      9.43303300   
    41       C          2.60196700     15.68401200      5.12931700   
    42       C         20.42098800     18.94068300     14.63696700   
    43       C          3.64901200      6.90568300     21.46803300   
    44       C         14.63696700     20.42098800     18.94068300   
    45       C         21.46803300      3.64901200      6.90568300   
    46       C          9.43303300      8.38598800     17.16431700   
    47       C          6.90568300     21.46803300      3.64901200   
    48       C          5.12931700      2.60196700     15.68401200   
    49       C          8.61946700      0.88818300      9.66651200   
    50       C          3.41553300     23.18181700     21.70151200   
    51       C          2.36848800     15.45053300     12.92318300   
    52       C         21.70151200      3.41553300     23.18181700   
    53       C         12.92318300      2.36848800     15.45053300   
    54       C          9.66651200      8.61946700      0.88818300   
    55       C         14.40348800     20.65446700     11.14681700   
    56       C          0.88818300      9.66651200      8.61946700   
    57       C         11.14681700     14.40348800     20.65446700   
    58       C         23.18181700     21.70151200      3.41553300   
    59       C         20.65446700     11.14681700     14.40348800   
    60       C         15.45053300     12.92318300      2.36848800   
    61       C         14.79342200     17.30392300     20.81332900   
    62       C         21.31157800      6.76607700      8.77832900   
    63       C         15.29167100      9.27657800      5.26892300   
    64       C          8.77832900     21.31157800      6.76607700   
    65       C          5.26892300     15.29167100      9.27657800   
    66       C         20.81332900     14.79342200     17.30392300   
    67       C          3.25667100      2.75842200     18.80107700   
    68       C         17.30392300     20.81332900     14.79342200   
    69       C         18.80107700      3.25667100      2.75842200   
    70       C          6.76607700      8.77832900     21.31157800   
    71       C          2.75842200     18.80107700      3.25667100   
    72       C          9.27657800      5.26892300     15.29167100   
    73       C         11.28642300     20.81092200      9.27417100   
    74       C          0.74857700      3.25907800     21.30917100   
    75       C          2.76082900     12.78357700      8.77592200   
    76       C         21.30917100      0.74857700      3.25907800   
    77       C          8.77592200      2.76082900     12.78357700   
    78       C          9.27417100     11.28642300     20.81092200   
    79       C         14.79582900     23.32142300     15.29407800   
    80       C         20.81092200      9.27417100     11.28642300   
    81       C         15.29407800     14.79582900     23.32142300   
    82       C          3.25907800     21.30917100      0.74857700   
    83       C         23.32142300     15.29407800     14.79582900   
    84       C         12.78357700      8.77592200      2.76082900   
    85       C         15.55884800     15.38313700     22.14199300   
    86       C         20.54615200      8.68686300     10.10699300   
    87       C         13.96300700      8.51115200      3.34813700   
    88       C         10.10699300     20.54615200      8.68686300   
    89       C          3.34813700     13.96300700      8.51115200   
    90       C         22.14199300     15.55884800     15.38313700   
    91       C          1.92800700      3.52384800     20.72186300   
    92       C         15.38313700     22.14199300     15.55884800   
    93       C         20.72186300      1.92800700      3.52384800   
    94       C          8.68686300     10.10699300     20.54615200   
    95       C          3.52384800     20.72186300      1.92800700   
    96       C          8.51115200      3.34813700     13.96300700   
    97       C          9.36563700     21.57634800      7.94550700   
    98       C          2.66936300      2.49365200     19.98050700   
    99       C          4.08949300     14.70436300      9.54134800   
   100       C         19.98050700      2.66936300      2.49365200   
   101       C          9.54134800      4.08949300     14.70436300   
   102       C          7.94550700      9.36563700     21.57634800   
   103       C         16.12449300     21.40063700     14.52865200   
   104       C         21.57634800      7.94550700      9.36563700   
   105       C         14.52865200     16.12449300     21.40063700   
   106       C          2.49365200     19.98050700      2.66936300   
   107       C         21.40063700     14.52865200     16.12449300   
   108       C         14.70436300      9.54134800      4.08949300   
   109       C         13.96300700      1.16498800     12.10239600   
   110       C         22.14199300     22.90501200      0.06739600   
   111       C         24.00260400     10.10699300     13.19998800   
   112       C          0.06739600     22.14199300     22.90501200   
   113       C         13.19998800     24.00260400     10.10699300   
   114       C         12.10239600     13.96300700      1.16498800   
   115       C         11.96760400      1.92800700     10.87001200   
   116       C          1.16498800     12.10239600     13.96300700   
   117       C         10.87001200     11.96760400      1.92800700   
   118       C         22.90501200      0.06739600     22.14199300   
   119       C          1.92800700     10.87001200     11.96760400   
   120       C         10.10699300     13.19998800     24.00260400   
   121       C         18.45687600     16.94528000     20.56300100   
   122       C         17.64812400      7.12472000      8.52800100   
   123       C         15.54199900      5.61312400      4.91028000   
   124       C          8.52800100     17.64812400      7.12472000   
   125       C          4.91028000     15.54199900      5.61312400   
   126       C         20.56300100     18.45687600     16.94528000   
   127       C          3.50699900      6.42187600     19.15972000   
   128       C         16.94528000     20.56300100     18.45687600   
   129       C         19.15972000      3.50699900      6.42187600   
   130       C          7.12472000      8.52800100     17.64812400   
   131       C          6.42187600     19.15972000      3.50699900   
   132       C          5.61312400      4.91028000     15.54199900   
   133       C         10.92778000      0.40437600      9.52449900   
   134       C          1.10722000     23.66562400     21.55949900   
   135       C          2.51050100     13.14222000     12.43937600   
   136       C         21.55949900      1.10722000     23.66562400   
   137       C         12.43937600      2.51050100     13.14222000   
   138       C          9.52449900     10.92778000      0.40437600   
   139       C         14.54550100     22.96278000     11.63062400   
   140       C          0.40437600      9.52449900     10.92778000   
   141       C         11.63062400     14.54550100     22.96278000   
   142       C         23.66562400     21.55949900      1.10722000   
   143       C         22.96278000     11.63062400     14.54550100   
   144       C         13.14222000     12.43937600      2.51050100   
   145       C         16.54812500     19.02011400     20.18991600   
   146       C         19.55687500      5.04988600      8.15491600   
   147       C         15.91508400      7.52187500      6.98511400   
   148       C          8.15491600     19.55687500      5.04988600   
   149       C          6.98511400     15.91508400      7.52187500   
   150       C         20.18991600     16.54812500     19.02011400   
   151       C          3.88008400      4.51312500     17.08488600   
   152       C         19.02011400     20.18991600     16.54812500   
   153       C         17.08488600      3.88008400      4.51312500   
   154       C          5.04988600      8.15491600     19.55687500   
   155       C          4.51312500     17.08488600      3.88008400   
   156       C          7.52187500      6.98511400     15.91508400   
   157       C         13.00261400     22.56562500      9.89758400   
   158       C         23.10238600      1.50437500     21.93258400   
   159       C          2.13741600     11.06738600     10.53062500   
   160       C         21.93258400     23.10238600      1.50437500   
   161       C         10.53062500      2.13741600     11.06738600   
   162       C          9.89758400     13.00261400     22.56562500   
   163       C         14.17241600      0.96761400     13.53937500   
   164       C         22.56562500      9.89758400     13.00261400   
   165       C         13.53937500     14.17241600      0.96761400   
   166       C          1.50437500     21.93258400     23.10238600   
   167       C          0.96761400     13.53937500     14.17241600   
   168       C         11.06738600     10.53062500      2.13741600   
   169       C         23.22514300     21.99035200     23.90873100   
   170       C         12.87985700      2.07964800     11.87373100   
   171       C         12.19626900      0.84485700      9.95535200   
   172       C         11.87373100     12.87985700      2.07964800   
   173       C          9.95535200     12.19626900      0.84485700   
   174       C         23.90873100     23.22514300     21.99035200   
   175       C          0.16126900     11.19014300     14.11464800   
   176       C         21.99035200     23.90873100     23.22514300   
   177       C         14.11464800      0.16126900     11.19014300   
   178       C          2.07964800     11.87373100     12.87985700   
   179       C         11.19014300     14.11464800      0.16126900   
   180       C          0.84485700      9.95535200     12.19626900   
   181       C         15.97285200      5.17264300      6.17876900   
   182       C         20.13214800     18.89735700     18.21376900   
   183       C          5.85623100      8.09714800     17.20764300   
   184       C         18.21376900     20.13214800     18.89735700   
   185       C         17.20764300      5.85623100      8.09714800   
   186       C          6.17876900     15.97285200      5.17264300   
   187       C         17.89123100      3.93785200      6.86235700   
   188       C          5.17264300      6.17876900     15.97285200   
   189       C          6.86235700     17.89123100      3.93785200   
   190       C         18.89735700     18.21376900     20.13214800   
   191       C          3.93785200      6.86235700     17.89123100   
   192       C          8.09714800     17.20764300      5.85623100   
   193       C         17.16672400     16.79123200     21.00829600   
   194       C         18.93827600      7.27876800      8.97329600   
   195       C         15.09670400      6.90327600      4.75623200   
   196       C          8.97329600     18.93827600      7.27876800   
   197       C          4.75623200     15.09670400      6.90327600   
   198       C         21.00829600     17.16672400     16.79123200   
   199       C          3.06170400      5.13172400     19.31376800   
   200       C         16.79123200     21.00829600     17.16672400   
   201       C         19.31376800      3.06170400      5.13172400   
   202       C          7.27876800      8.97329600     18.93827600   
   203       C          5.13172400     19.31376800      3.06170400   
   204       C          6.90327600      4.75623200     15.09670400   
   205       C         10.77373200     23.18422400      9.07920400   
   206       C          1.26126800      0.88577600     21.11420400   
   207       C          2.95579600     13.29626800     11.14922400   
   208       C         21.11420400      1.26126800      0.88577600   
   209       C         11.14922400      2.95579600     13.29626800   
   210       C          9.07920400     10.77373200     23.18422400   
   211       C         14.99079600     22.80873200     12.92077600   
   212       C         23.18422400      9.07920400     10.77373200   
   213       C         12.92077600     14.99079600     22.80873200   
   214       C          0.88577600     21.11420400      1.26126800   
   215       C         22.80873200     12.92077600     14.99079600   
   216       C         13.29626800     11.14922400      2.95579600   
   217       C         16.16300500     17.81420700     20.72908400   
   218       C         19.94199500      6.25579300      8.69408400   
   219       C         15.37591600      7.90699500      5.77920700   
   220       C          8.69408400     19.94199500      6.25579300   
   221       C          5.77920700     15.37591600      7.90699500   
   222       C         20.72908400     16.16300500     17.81420700   
   223       C          3.34091600      4.12800500     18.29079300   
   224       C         17.81420700     20.72908400     16.16300500   
   225       C         18.29079300      3.34091600      4.12800500   
   226       C          6.25579300      8.69408400     19.94199500   
   227       C          4.12800500     18.29079300      3.34091600   
   228       C          7.90699500      5.77920700     15.37591600   
   229       C         11.79670700     22.18050500      9.35841600   
   230       C          0.23829300      1.88949500     21.39341600   
   231       C          2.67658400     12.27329300     10.14550500   
   232       C         21.39341600      0.23829300      1.88949500   
   233       C         10.14550500      2.67658400     12.27329300   
   234       C          9.35841600     11.79670700     22.18050500   
   235       C         14.71158400     23.83170700     13.92449500   
   236       C         22.18050500      9.35841600     11.79670700   
   237       C         13.92449500     14.71158400     23.83170700   
   238       C          1.88949500     21.39341600      0.23829300   
   239       C         23.83170700     13.92449500     14.71158400   
   240       C         12.27329300     10.14550500      2.67658400   
   241       C         19.29932600     15.89101400     20.03346100   
   242       C         16.80567400      8.17898600      7.99846100   
   243       C         16.07153900      4.77067400      3.85601400   
   244       C          7.99846100     16.80567400      8.17898600   
   245       C          3.85601400     16.07153900      4.77067400   
   246       C         20.03346100     19.29932600     15.89101400   
   247       C          4.03653900      7.26432600     20.21398600   
   248       C         15.89101400     20.03346100     19.29932600   
   249       C         20.21398600      4.03653900      7.26432600   
   250       C          8.17898600      7.99846100     16.80567400   
   251       C          7.26432600     20.21398600      4.03653900   
   252       C          4.77067400      3.85601400     16.07153900   
   253       C          9.87351400      1.24682600     10.05403900   
   254       C          2.16148600     22.82317400     22.08903900   
   255       C          1.98096100     14.19648600     13.28182600   
   256       C         22.08903900      2.16148600     22.82317400   
   257       C         13.28182600      1.98096100     14.19648600   
   258       C         10.05403900      9.87351400      1.24682600   
   259       C         14.01596100     21.90851400     10.78817400   
   260       C          1.24682600     10.05403900      9.87351400   
   261       C         10.78817400     14.01596100     21.90851400   
   262       C         22.82317400     22.08903900      2.16148600   
   263       C         21.90851400     10.78817400     14.01596100   
   264       C         14.19648600     13.28182600      1.98096100   
   265       C         16.88029100     15.47701000     21.48728900   
   266       C         19.22470900      8.59299000      9.45228900   
   267       C         14.61771100      7.18970900      3.44201000   
   268       C          9.45228900     19.22470900      8.59299000   
   269       C          3.44201000     14.61771100      7.18970900   
   270       C         21.48728900     16.88029100     15.47701000   
   271       C          2.58271100      4.84529100     20.62799000   
   272       C         15.47701000     21.48728900     16.88029100   
   273       C         20.62799000      2.58271100      4.84529100   
   274       C          8.59299000      9.45228900     19.22470900   
   275       C          4.84529100     20.62799000      2.58271100   
   276       C          7.18970900      3.44201000     14.61771100   
   277       C          9.45951000     22.89779100      8.60021100   
   278       C          2.57549000      1.17220900     20.63521100   
   279       C          3.43478900     14.61049000     10.86279100   
   280       C         20.63521100      2.57549000      1.17220900   
   281       C         10.86279100      3.43478900     14.61049000   
   282       C          8.60021100      9.45951000     22.89779100   
   283       C         15.46978900     21.49451000     13.20720900   
   284       C         22.89779100      8.60021100      9.45951000   
   285       C         13.20720900     15.46978900     21.49451000   
   286       C          1.17220900     20.63521100      2.57549000   
   287       C         21.49451000     13.20720900     15.46978900   
   288       C         14.61049000     10.86279100      3.43478900   
   289       H         13.45031600     21.59801100     17.55184400   
   290       H         22.65468400      2.47198900      5.51684400   
   291       H         18.55315600     10.61968400      9.56301100   
   292       H          5.51684400     22.65468400      2.47198900   
   293       H          9.56301100     18.55315600     10.61968400   
   294       H         17.55184400     13.45031600     21.59801100   
   295       H          6.51815600      1.41531600     14.50698900   
   296       H         21.59801100     17.55184400     13.45031600   
   297       H         14.50698900      6.51815600      1.41531600   
   298       H          2.47198900      5.51684400     22.65468400   
   299       H          1.41531600     14.50698900      6.51815600   
   300       H         10.61968400      9.56301100     18.55315600   
   301       H         15.58051100     19.46781600     12.53565600   
   302       H         20.52448900      4.60218400      0.50065600   
   303       H         23.56934400      8.48948900      7.43281600   
   304       H          0.50065600     20.52448900      4.60218400   
   305       H          7.43281600     23.56934400      8.48948900   
   306       H         12.53565600     15.58051100     19.46781600   
   307       H         11.53434400      3.54551100     16.63718400   
   308       H         19.46781600     12.53565600     15.58051100   
   309       H         16.63718400     11.53434400      3.54551100   
   310       H          4.60218400      0.50065600     20.52448900   
   311       H          3.54551100     16.63718400     11.53434400   
   312       H          8.48948900      7.43281600     23.56934400   
   313       H         13.74878400     20.12733400     19.49910700   
   314       H         22.35621600      3.94266600      7.46410700   
   315       H         16.60589300     10.32121600      8.09233400   
   316       H          7.46410700     22.35621600      3.94266600   
   317       H          8.09233400     16.60589300     10.32121600   
   318       H         19.49910700     13.74878400     20.12733400   
   319       H          4.57089300      1.71378400     15.97766600   
   320       H         20.12733400     19.49910700     13.74878400   
   321       H         15.97766600      4.57089300      1.71378400   
   322       H          3.94266600      7.46410700     22.35621600   
   323       H          1.71378400     15.97766600      4.57089300   
   324       H         10.32121600      8.09233400     16.60589300   
   325       H         14.10983400     19.76628400     10.58839300   
   326       H         21.99516600      4.30371600     22.62339300   
   327       H          1.44660700      9.96016600      7.73128400   
   328       H         22.62339300     21.99516600      4.30371600   
   329       H          7.73128400      1.44660700      9.96016600   
   330       H         10.58839300     14.10983400     19.76628400   
   331       H         13.48160700      2.07483400     16.33871600   
   332       H         19.76628400     10.58839300     14.10983400   
   333       H         16.33871600     13.48160700      2.07483400   
   334       H          4.30371600     22.62339300     21.99516600   
   335       H          2.07483400     16.33871600     13.48160700   
   336       H          9.96016600      7.73128400      1.44660700   
   337       H         14.00392600     17.89845200     20.33674300   
   338       H         22.10107400      6.17154800      8.30174300   
   339       H         15.76825700     10.06607400      5.86345200   
   340       H          8.30174300     22.10107400      6.17154800   
   341       H          5.86345200     15.76825700     10.06607400   
   342       H         20.33674300     14.00392600     17.89845200   
   343       H          3.73325700      1.96892600     18.20654800   
   344       H         17.89845200     20.33674300     14.00392600   
   345       H         18.20654800      3.73325700      1.96892600   
   346       H          6.17154800      8.30174300     22.10107400   
   347       H          1.96892600     18.20654800      3.73325700   
   348       H         10.06607400      5.86345200     15.76825700   
   349       H         11.88095200     20.02142600      9.75075700   
   350       H          0.15404800      4.04857400     21.78575700   
   351       H          2.28424300     12.18904800      7.98642600   
   352       H         21.78575700      0.15404800      4.04857400   
   353       H          7.98642600      2.28424300     12.18904800   
   354       H          9.75075700     11.88095200     20.02142600   
   355       H         14.31924300     23.91595200     16.08357400   
   356       H         20.02142600      9.75075700     11.88095200   
   357       H         16.08357400     14.31924300     23.91595200   
   358       H          4.04857400     21.78575700      0.15404800   
   359       H         23.91595200     16.08357400     14.31924300   
   360       H         12.18904800      7.98642600      2.28424300   
   361      Tv         24.07000000      0.00000000      0.00000000   
   362      Tv          0.00000000     24.07000000      0.00000000   
   363      Tv          0.00000000      0.00000000     24.07000000   


                   THE SYSTEM IS A SOLID


                UNIT CELL TRANSLATION VECTORS

              X                Y              Z
    T1 =    24.0700000      0.0000000      0.0000000
    T2 =     0.0000000     24.0700000      0.0000000
    T3 =     0.0000000      0.0000000     24.0700000


          CARTESIAN COORDINATES 

    NO.       ATOM           X           Y           Z

     1         N         19.2175     19.9805     17.9851
     2         N         16.8875      4.0895      5.9501
     3         N         18.1199      4.8525      7.9455
     4         N          5.9501     16.8875      4.0895
     5         N          7.9455     18.1199      4.8525
     6         N         17.9851     19.2175     19.9805
     7         N          6.0849      7.1825     16.1245
     8         N         19.9805     17.9851     19.2175
     9         N         16.1245      6.0849      7.1825
    10         N          4.0895      5.9501     16.8875
    11         N          7.1825     16.1245      6.0849
    12         N          4.8525      7.9455     18.1199
    13         C         17.7661     14.4613     21.2297
    14         C         18.3389      9.6087      9.1947
    15         C         14.8753      6.3039      2.4263
    16         C          9.1947     18.3389      9.6087
    17         C          2.4263     14.8753      6.3039
    18         C         21.2297     17.7661     14.4613
    19         C          2.8403      5.7311     21.6437
    20         C         14.4613     21.2297     17.7661
    21         C         21.6437      2.8403      5.7311
    22         C          9.6087      9.1947     18.3389
    23         C          5.7311     21.6437      2.8403
    24         C          6.3039      2.4263     14.8753
    25         C          8.4438     23.7836      8.8578
    26         C          3.5912      0.2864     20.8928
    27         C          3.1772     15.6262     11.7486
    28         C         20.8928      3.5912      0.2864
    29         C         11.7486      3.1772     15.6262
    30         C          8.8578      8.4438     23.7836
    31         C         15.2122     20.4788     12.3214
    32         C         23.7836      8.8578      8.4438
    33         C         12.3214     15.2122     20.4788
    34         C          0.2864     20.8928      3.5912
    35         C         20.4788     12.3214     15.2122
    36         C         15.6262     11.7486      3.1772
    37         C         18.9407     14.6370     20.4210
    38         C         17.1643      9.4330      8.3860
    39         C         15.6840      5.1293      2.6020
    40         C          8.3860     17.1643      9.4330
    41         C          2.6020     15.6840      5.1293
    42         C         20.4210     18.9407     14.6370
    43         C          3.6490      6.9057     21.4680
    44         C         14.6370     20.4210     18.9407
    45         C         21.4680      3.6490      6.9057
    46         C          9.4330      8.3860     17.1643
    47         C          6.9057     21.4680      3.6490
    48         C          5.1293      2.6020     15.6840
    49         C          8.6195      0.8882      9.6665
    50         C          3.4155     23.1818     21.7015
    51         C          2.3685     15.4505     12.9232
    52         C         21.7015      3.4155     23.1818
    53         C         12.9232      2.3685     15.4505
    54         C          9.6665      8.6195      0.8882
    55         C         14.4035     20.6545     11.1468
    56         C          0.8882      9.6665      8.6195
    57         C         11.1468     14.4035     20.6545
    58         C         23.1818     21.7015      3.4155
    59         C         20.6545     11.1468     14.4035
    60         C         15.4505     12.9232      2.3685
    61         C         14.7934     17.3039     20.8133
    62         C         21.3116      6.7661      8.7783
    63         C         15.2917      9.2766      5.2689
    64         C          8.7783     21.3116      6.7661
    65         C          5.2689     15.2917      9.2766
    66         C         20.8133     14.7934     17.3039
    67         C          3.2567      2.7584     18.8011
    68         C         17.3039     20.8133     14.7934
    69         C         18.8011      3.2567      2.7584
    70         C          6.7661      8.7783     21.3116
    71         C          2.7584     18.8011      3.2567
    72         C          9.2766      5.2689     15.2917
    73         C         11.2864     20.8109      9.2742
    74         C          0.7486      3.2591     21.3092
    75         C          2.7608     12.7836      8.7759
    76         C         21.3092      0.7486      3.2591
    77         C          8.7759      2.7608     12.7836
    78         C          9.2742     11.2864     20.8109
    79         C         14.7958     23.3214     15.2941
    80         C         20.8109      9.2742     11.2864
    81         C         15.2941     14.7958     23.3214
    82         C          3.2591     21.3092      0.7486
    83         C         23.3214     15.2941     14.7958
    84         C         12.7836      8.7759      2.7608
    85         C         15.5588     15.3831     22.1420
    86         C         20.5462      8.6869     10.1070
    87         C         13.9630      8.5112      3.3481
    88         C         10.1070     20.5462      8.6869
    89         C          3.3481     13.9630      8.5112
    90         C         22.1420     15.5588     15.3831
    91         C          1.9280      3.5238     20.7219
    92         C         15.3831     22.1420     15.5588
    93         C         20.7219      1.9280      3.5238
    94         C          8.6869     10.1070     20.5462
    95         C          3.5238     20.7219      1.9280
    96         C          8.5112      3.3481     13.9630
    97         C          9.3656     21.5763      7.9455
    98         C          2.6694      2.4937     19.9805
    99         C          4.0895     14.7044      9.5413
   100         C         19.9805      2.6694      2.4937
   101         C          9.5413      4.0895     14.7044
   102         C          7.9455      9.3656     21.5763
   103         C         16.1245     21.4006     14.5287
   104         C         21.5763      7.9455      9.3656
   105         C         14.5287     16.1245     21.4006
   106         C          2.4937     19.9805      2.6694
   107         C         21.4006     14.5287     16.1245
   108         C         14.7044      9.5413      4.0895
   109         C         13.9630      1.1650     12.1024
   110         C         22.1420     22.9050      0.0674
   111         C         24.0026     10.1070     13.2000
   112         C          0.0674     22.1420     22.9050
   113         C         13.2000     24.0026     10.1070
   114         C         12.1024     13.9630      1.1650
   115         C         11.9676      1.9280     10.8700
   116         C          1.1650     12.1024     13.9630
   117         C         10.8700     11.9676      1.9280
   118         C         22.9050      0.0674     22.1420
   119         C          1.9280     10.8700     11.9676
   120         C         10.1070     13.2000     24.0026
   121         C         18.4569     16.9453     20.5630
   122         C         17.6481      7.1247      8.5280
   123         C         15.5420      5.6131      4.9103
   124         C          8.5280     17.6481      7.1247
   125         C          4.9103     15.5420      5.6131
   126         C         20.5630     18.4569     16.9453
   127         C          3.5070      6.4219     19.1597
   128         C         16.9453     20.5630     18.4569
   129         C         19.1597      3.5070      6.4219
   130         C          7.1247      8.5280     17.6481
   131         C          6.4219     19.1597      3.5070
   132         C          5.6131      4.9103     15.5420
   133         C         10.9278      0.4044      9.5245
   134         C          1.1072     23.6656     21.5595
   135         C          2.5105     13.1422     12.4394
   136         C         21.5595      1.1072     23.6656
   137         C         12.4394      2.5105     13.1422
   138         C          9.5245     10.9278      0.4044
   139         C         14.5455     22.9628     11.6306
   140         C          0.4044      9.5245     10.9278
   141         C         11.6306     14.5455     22.9628
   142         C         23.6656     21.5595      1.1072
   143         C         22.9628     11.6306     14.5455
   144         C         13.1422     12.4394      2.5105
   145         C         16.5481     19.0201     20.1899
   146         C         19.5569      5.0499      8.1549
   147         C         15.9151      7.5219      6.9851
   148         C          8.1549     19.5569      5.0499
   149         C          6.9851     15.9151      7.5219
   150         C         20.1899     16.5481     19.0201
   151         C          3.8801      4.5131     17.0849
   152         C         19.0201     20.1899     16.5481
   153         C         17.0849      3.8801      4.5131
   154         C          5.0499      8.1549     19.5569
   155         C          4.5131     17.0849      3.8801
   156         C          7.5219      6.9851     15.9151
   157         C         13.0026     22.5656      9.8976
   158         C         23.1024      1.5044     21.9326
   159         C          2.1374     11.0674     10.5306
   160         C         21.9326     23.1024      1.5044
   161         C         10.5306      2.1374     11.0674
   162         C          9.8976     13.0026     22.5656
   163         C         14.1724      0.9676     13.5394
   164         C         22.5656      9.8976     13.0026
   165         C         13.5394     14.1724      0.9676
   166         C          1.5044     21.9326     23.1024
   167         C          0.9676     13.5394     14.1724
   168         C         11.0674     10.5306      2.1374
   169         C         23.2251     21.9904     23.9087
   170         C         12.8799      2.0796     11.8737
   171         C         12.1963      0.8449      9.9554
   172         C         11.8737     12.8799      2.0796
   173         C          9.9554     12.1963      0.8449
   174         C         23.9087     23.2251     21.9904
   175         C          0.1613     11.1901     14.1146
   176         C         21.9904     23.9087     23.2251
   177         C         14.1146      0.1613     11.1901
   178         C          2.0796     11.8737     12.8799
   179         C         11.1901     14.1146      0.1613
   180         C          0.8449      9.9554     12.1963
   181         C         15.9729      5.1726      6.1788
   182         C         20.1321     18.8974     18.2138
   183         C          5.8562      8.0971     17.2076
   184         C         18.2138     20.1321     18.8974
   185         C         17.2076      5.8562      8.0971
   186         C          6.1788     15.9729      5.1726
   187         C         17.8912      3.9379      6.8624
   188         C          5.1726      6.1788     15.9729
   189         C          6.8624     17.8912      3.9379
   190         C         18.8974     18.2138     20.1321
   191         C          3.9379      6.8624     17.8912
   192         C          8.0971     17.2076      5.8562
   193         C         17.1667     16.7912     21.0083
   194         C         18.9383      7.2788      8.9733
   195         C         15.0967      6.9033      4.7562
   196         C          8.9733     18.9383      7.2788
   197         C          4.7562     15.0967      6.9033
   198         C         21.0083     17.1667     16.7912
   199         C          3.0617      5.1317     19.3138
   200         C         16.7912     21.0083     17.1667
   201         C         19.3138      3.0617      5.1317
   202         C          7.2788      8.9733     18.9383
   203         C          5.1317     19.3138      3.0617
   204         C          6.9033      4.7562     15.0967
   205         C         10.7737     23.1842      9.0792
   206         C          1.2613      0.8858     21.1142
   207         C          2.9558     13.2963     11.1492
   208         C         21.1142      1.2613      0.8858
   209         C         11.1492      2.9558     13.2963
   210         C          9.0792     10.7737     23.1842
   211         C         14.9908     22.8087     12.9208
   212         C         23.1842      9.0792     10.7737
   213         C         12.9208     14.9908     22.8087
   214         C          0.8858     21.1142      1.2613
   215         C         22.8087     12.9208     14.9908
   216         C         13.2963     11.1492      2.9558
   217         C         16.1630     17.8142     20.7291
   218         C         19.9420      6.2558      8.6941
   219         C         15.3759      7.9070      5.7792
   220         C          8.6941     19.9420      6.2558
   221         C          5.7792     15.3759      7.9070
   222         C         20.7291     16.1630     17.8142
   223         C          3.3409      4.1280     18.2908
   224         C         17.8142     20.7291     16.1630
   225         C         18.2908      3.3409      4.1280
   226         C          6.2558      8.6941     19.9420
   227         C          4.1280     18.2908      3.3409
   228         C          7.9070      5.7792     15.3759
   229         C         11.7967     22.1805      9.3584
   230         C          0.2383      1.8895     21.3934
   231         C          2.6766     12.2733     10.1455
   232         C         21.3934      0.2383      1.8895
   233         C         10.1455      2.6766     12.2733
   234         C          9.3584     11.7967     22.1805
   235         C         14.7116     23.8317     13.9245
   236         C         22.1805      9.3584     11.7967
   237         C         13.9245     14.7116     23.8317
   238         C          1.8895     21.3934      0.2383
   239         C         23.8317     13.9245     14.7116
   240         C         12.2733     10.1455      2.6766
   241         C         19.2993     15.8910     20.0335
   242         C         16.8057      8.1790      7.9985
   243         C         16.0715      4.7707      3.8560
   244         C          7.9985     16.8057      8.1790
   245         C          3.8560     16.0715      4.7707
   246         C         20.0335     19.2993     15.8910
   247         C          4.0365      7.2643     20.2140
   248         C         15.8910     20.0335     19.2993
   249         C         20.2140      4.0365      7.2643
   250         C          8.1790      7.9985     16.8057
   251         C          7.2643     20.2140      4.0365
   252         C          4.7707      3.8560     16.0715
   253         C          9.8735      1.2468     10.0540
   254         C          2.1615     22.8232     22.0890
   255         C          1.9810     14.1965     13.2818
   256         C         22.0890      2.1615     22.8232
   257         C         13.2818      1.9810     14.1965
   258         C         10.0540      9.8735      1.2468
   259         C         14.0160     21.9085     10.7882
   260         C          1.2468     10.0540      9.8735
   261         C         10.7882     14.0160     21.9085
   262         C         22.8232     22.0890      2.1615
   263         C         21.9085     10.7882     14.0160
   264         C         14.1965     13.2818      1.9810
   265         C         16.8803     15.4770     21.4873
   266         C         19.2247      8.5930      9.4523
   267         C         14.6177      7.1897      3.4420
   268         C          9.4523     19.2247      8.5930
   269         C          3.4420     14.6177      7.1897
   270         C         21.4873     16.8803     15.4770
   271         C          2.5827      4.8453     20.6280
   272         C         15.4770     21.4873     16.8803
   273         C         20.6280      2.5827      4.8453
   274         C          8.5930      9.4523     19.2247
   275         C          4.8453     20.6280      2.5827
   276         C          7.1897      3.4420     14.6177
   277         C          9.4595     22.8978      8.6002
   278         C          2.5755      1.1722     20.6352
   279         C          3.4348     14.6105     10.8628
   280         C         20.6352      2.5755      1.1722
   281         C         10.8628      3.4348     14.6105
   282         C          8.6002      9.4595     22.8978
   283         C         15.4698     21.4945     13.2072
   284         C         22.8978      8.6002      9.4595
   285         C         13.2072     15.4698     21.4945
   286         C          1.1722     20.6352      2.5755
   287         C         21.4945     13.2072     15.4698
   288         C         14.6105     10.8628      3.4348
   289         H         13.4503     21.5980     17.5518
   290         H         22.6547      2.4720      5.5168
   291         H         18.5532     10.6197      9.5630
   292         H          5.5168     22.6547      2.4720
   293         H          9.5630     18.5532     10.6197
   294         H         17.5518     13.4503     21.5980
   295         H          6.5182      1.4153     14.5070
   296         H         21.5980     17.5518     13.4503
   297         H         14.5070      6.5182      1.4153
   298         H          2.4720      5.5168     22.6547
   299         H          1.4153     14.5070      6.5182
   300         H         10.6197      9.5630     18.5532
   301         H         15.5805     19.4678     12.5357
   302         H         20.5245      4.6022      0.5007
   303         H         23.5693      8.4895      7.4328
   304         H          0.5007     20.5245      4.6022
   305         H          7.4328     23.5693      8.4895
   306         H         12.5357     15.5805     19.4678
   307         H         11.5343      3.5455     16.6372
   308         H         19.4678     12.5357     15.5805
   309         H         16.6372     11.5343      3.5455
   310         H          4.6022      0.5007     20.5245
   311         H          3.5455     16.6372     11.5343
   312         H          8.4895      7.4328     23.5693
   313         H         13.7488     20.1273     19.4991
   314         H         22.3562      3.9427      7.4641
   315         H         16.6059     10.3212      8.0923
   316         H          7.4641     22.3562      3.9427
   317         H          8.0923     16.6059     10.3212
   318         H         19.4991     13.7488     20.1273
   319         H          4.5709      1.7138     15.9777
   320         H         20.1273     19.4991     13.7488
   321         H         15.9777      4.5709      1.7138
   322         H          3.9427      7.4641     22.3562
   323         H          1.7138     15.9777      4.5709
   324         H         10.3212      8.0923     16.6059
   325         H         14.1098     19.7663     10.5884
   326         H         21.9952      4.3037     22.6234
   327         H          1.4466      9.9602      7.7313
   328         H         22.6234     21.9952      4.3037
   329         H          7.7313      1.4466      9.9602
   330         H         10.5884     14.1098     19.7663
   331         H         13.4816      2.0748     16.3387
   332         H         19.7663     10.5884     14.1098
   333         H         16.3387     13.4816      2.0748
   334         H          4.3037     22.6234     21.9952
   335         H          2.0748     16.3387     13.4816
   336         H          9.9602      7.7313      1.4466
   337         H         14.0039     17.8985     20.3367
   338         H         22.1011      6.1715      8.3017
   339         H         15.7683     10.0661      5.8635
   340         H          8.3017     22.1011      6.1715
   341         H          5.8635     15.7683     10.0661
   342         H         20.3367     14.0039     17.8985
   343         H          3.7333      1.9689     18.2065
   344         H         17.8985     20.3367     14.0039
   345         H         18.2065      3.7333      1.9689
   346         H          6.1715      8.3017     22.1011
   347         H          1.9689     18.2065      3.7333
   348         H         10.0661      5.8635     15.7683
   349         H         11.8810     20.0214      9.7508
   350         H          0.1540      4.0486     21.7858
   351         H          2.2842     12.1890      7.9864
   352         H         21.7858      0.1540      4.0486
   353         H          7.9864      2.2842     12.1890
   354         H          9.7508     11.8810     20.0214
   355         H         14.3192     23.9160     16.0836
   356         H         20.0214      9.7508     11.8810
   357         H         16.0836     14.3192     23.9160
   358         H          4.0486     21.7858      0.1540
   359         H         23.9160     16.0836     14.3192
   360         H         12.1890      7.9864      2.2842

 General Reference for PM7:
 "Optimization of Parameters for Semiempirical Methods VI: More Modifications to the 
 NDDO Approximations and Re-optimization of Parameters", J. J. P. Stewart, J. Mol. Mod., 1:32, 19 (2013)
 https://link.springer.com/article/10.1007/s00894-012-1667-x

           Empirical Formula: C276 H72 N12  =   360 atoms



      RHF CALCULATION, NO. OF DOUBLY OCCUPIED LEVELS = 618


 -------------------------------------------------------------------------------
 PM7 CHARGE=0 NOOPT




     NO PARAMETERS MARKED FOR OPTIMIZATION, SO 1SCF WAS USED  
     SCF FIELD WAS ACHIEVED                                   


                              PM7 CALCULATION
                                                       MOPAC v22.1.0 Linux
                                                       Thu Feb  1 15:38:27 2024




          FINAL HEAT OF FORMATION =       2825.99405 KCAL/MOL =   11823.95909 KJ/MOL
          H.o.F. per unit cell    =        235.49950 KCAL, for 12 unit cells, unit cell = C23 H6 N1



          IONIZATION POTENTIAL    =          5.858015 EV
          HOMO LUMO ENERGIES (EV) =         -5.858 -3.882
          NO. OF FILLED LEVELS    =        618
          MOLECULAR WEIGHT        =       3555.6852

                   THE SYSTEM IS A SOLID


                UNIT CELL TRANSLATION VECTORS

              X                Y              Z
    T1 =    24.0700000      0.0000000      0.0000000
    T2 =     0.0000000     24.0700000      0.0000000
    T3 =     0.0000000      0.0000000     24.0700000

          VOLUME OF UNIT CELL     =      13945.313 CUBIC ANGSTROMS

          DENSITY                 =          0.423 GRAMS/CC
                              A   =         24.070 ANGSTROMS
                              B   =         24.070 ANGSTROMS
                              C   =         24.070 ANGSTROMS
                            ALPHA =         90.000 DEGREES
                            BETA  =         90.000 DEGREES
                            GAMMA =         90.000 DEGREES



          SCF CALCULATIONS        =          1

          WALL-CLOCK TIME         =          3 MINUTES AND 35.031 SECONDS
          COMPUTATION TIME        =          3 MINUTES AND 35.022 SECONDS




   ATOM   CHEMICAL          X               Y               Z
  NUMBER   SYMBOL      (ANGSTROMS)     (ANGSTROMS)     (ANGSTROMS)

     1       N         19.21748800     19.98050700     17.98510400   
     2       N         16.88751200      4.08949300      5.95010400   
     3       N         18.11989600      4.85251200      7.94550700   
     4       N          5.95010400     16.88751200      4.08949300   
     5       N          7.94550700     18.11989600      4.85251200   
     6       N         17.98510400     19.21748800     19.98050700   
     7       N          6.08489600      7.18248800     16.12449300   
     8       N         19.98050700     17.98510400     19.21748800   
     9       N         16.12449300      6.08489600      7.18248800   
    10       N          4.08949300      5.95010400     16.88751200   
    11       N          7.18248800     16.12449300      6.08489600   
    12       N          4.85251200      7.94550700     18.11989600   
    13       C         17.76606700     14.46125600     21.22974000   
    14       C         18.33893300      9.60874400      9.19474000   
    15       C         14.87526000      6.30393300      2.42625600   
    16       C          9.19474000     18.33893300      9.60874400   
    17       C          2.42625600     14.87526000      6.30393300   
    18       C         21.22974000     17.76606700     14.46125600   
    19       C          2.84026000      5.73106700     21.64374400   
    20       C         14.46125600     21.22974000     17.76606700   
    21       C         21.64374400      2.84026000      5.73106700   
    22       C          9.60874400      9.19474000     18.33893300   
    23       C          5.73106700     21.64374400      2.84026000   
    24       C          6.30393300      2.42625600     14.87526000   
    25       C          8.44375600     23.78356700      8.85776000   
    26       C          3.59124400      0.28643300     20.89276000   
    27       C          3.17724000     15.62624400     11.74856700   
    28       C         20.89276000      3.59124400      0.28643300   
    29       C         11.74856700      3.17724000     15.62624400   
    30       C          8.85776000      8.44375600     23.78356700   
    31       C         15.21224000     20.47875600     12.32143300   
    32       C         23.78356700      8.85776000      8.44375600   
    33       C         12.32143300     15.21224000     20.47875600   
    34       C          0.28643300     20.89276000      3.59124400   
    35       C         20.47875600     12.32143300     15.21224000   
    36       C         15.62624400     11.74856700      3.17724000   
    37       C         18.94068300     14.63696700     20.42098800   
    38       C         17.16431700      9.43303300      8.38598800   
    39       C         15.68401200      5.12931700      2.60196700   
    40       C          8.38598800     17.16431700      9.43303300   
    41       C          2.60196700     15.68401200      5.12931700   
    42       C         20.42098800     18.94068300     14.63696700   
    43       C          3.64901200      6.90568300     21.46803300   
    44       C         14.63696700     20.42098800     18.94068300   
    45       C         21.46803300      3.64901200      6.90568300   
    46       C          9.43303300      8.38598800     17.16431700   
    47       C          6.90568300     21.46803300      3.64901200   
    48       C          5.12931700      2.60196700     15.68401200   
    49       C          8.61946700      0.88818300      9.66651200   
    50       C          3.41553300     23.18181700     21.70151200   
    51       C          2.36848800     15.45053300     12.92318300   
    52       C         21.70151200      3.41553300     23.18181700   
    53       C         12.92318300      2.36848800     15.45053300   
    54       C          9.66651200      8.61946700      0.88818300   
    55       C         14.40348800     20.65446700     11.14681700   
    56       C          0.88818300      9.66651200      8.61946700   
    57       C         11.14681700     14.40348800     20.65446700   
    58       C         23.18181700     21.70151200      3.41553300   
    59       C         20.65446700     11.14681700     14.40348800   
    60       C         15.45053300     12.92318300      2.36848800   
    61       C         14.79342200     17.30392300     20.81332900   
    62       C         21.31157800      6.76607700      8.77832900   
    63       C         15.29167100      9.27657800      5.26892300   
    64       C          8.77832900     21.31157800      6.76607700   
    65       C          5.26892300     15.29167100      9.27657800   
    66       C         20.81332900     14.79342200     17.30392300   
    67       C          3.25667100      2.75842200     18.80107700   
    68       C         17.30392300     20.81332900     14.79342200   
    69       C         18.80107700      3.25667100      2.75842200   
    70       C          6.76607700      8.77832900     21.31157800   
    71       C          2.75842200     18.80107700      3.25667100   
    72       C          9.27657800      5.26892300     15.29167100   
    73       C         11.28642300     20.81092200      9.27417100   
    74       C          0.74857700      3.25907800     21.30917100   
    75       C          2.76082900     12.78357700      8.77592200   
    76       C         21.30917100      0.74857700      3.25907800   
    77       C          8.77592200      2.76082900     12.78357700   
    78       C          9.27417100     11.28642300     20.81092200   
    79       C         14.79582900     23.32142300     15.29407800   
    80       C         20.81092200      9.27417100     11.28642300   
    81       C         15.29407800     14.79582900     23.32142300   
    82       C          3.25907800     21.30917100      0.74857700   
    83       C         23.32142300     15.29407800     14.79582900   
    84       C         12.78357700      8.77592200      2.76082900   
    85       C         15.55884800     15.38313700     22.14199300   
    86       C         20.54615200      8.68686300     10.10699300   
    87       C         13.96300700      8.51115200      3.34813700   
    88       C         10.10699300     20.54615200      8.68686300   
    89       C          3.34813700     13.96300700      8.51115200   
    90       C         22.14199300     15.55884800     15.38313700   
    91       C          1.92800700      3.52384800     20.72186300   
    92       C         15.38313700     22.14199300     15.55884800   
    93       C         20.72186300      1.92800700      3.52384800   
    94       C          8.68686300     10.10699300     20.54615200   
    95       C          3.52384800     20.72186300      1.92800700   
    96       C          8.51115200      3.34813700     13.96300700   
    97       C          9.36563700     21.57634800      7.94550700   
    98       C          2.66936300      2.49365200     19.98050700   
    99       C          4.08949300     14.70436300      9.54134800   
   100       C         19.98050700      2.66936300      2.49365200   
   101       C          9.54134800      4.08949300     14.70436300   
   102       C          7.94550700      9.36563700     21.57634800   
   103       C         16.12449300     21.40063700     14.52865200   
   104       C         21.57634800      7.94550700      9.36563700   
   105       C         14.52865200     16.12449300     21.40063700   
   106       C          2.49365200     19.98050700      2.66936300   
   107       C         21.40063700     14.52865200     16.12449300   
   108       C         14.70436300      9.54134800      4.08949300   
   109       C         13.96300700      1.16498800     12.10239600   
   110       C         22.14199300     22.90501200      0.06739600   
   111       C         24.00260400     10.10699300     13.19998800   
   112       C          0.06739600     22.14199300     22.90501200   
   113       C         13.19998800     24.00260400     10.10699300   
   114       C         12.10239600     13.96300700      1.16498800   
   115       C         11.96760400      1.92800700     10.87001200   
   116       C          1.16498800     12.10239600     13.96300700   
   117       C         10.87001200     11.96760400      1.92800700   
   118       C         22.90501200      0.06739600     22.14199300   
   119       C          1.92800700     10.87001200     11.96760400   
   120       C         10.10699300     13.19998800     24.00260400   
   121       C         18.45687600     16.94528000     20.56300100   
   122       C         17.64812400      7.12472000      8.52800100   
   123       C         15.54199900      5.61312400      4.91028000   
   124       C          8.52800100     17.64812400      7.12472000   
   125       C          4.91028000     15.54199900      5.61312400   
   126       C         20.56300100     18.45687600     16.94528000   
   127       C          3.50699900      6.42187600     19.15972000   
   128       C         16.94528000     20.56300100     18.45687600   
   129       C         19.15972000      3.50699900      6.42187600   
   130       C          7.12472000      8.52800100     17.64812400   
   131       C          6.42187600     19.15972000      3.50699900   
   132       C          5.61312400      4.91028000     15.54199900   
   133       C         10.92778000      0.40437600      9.52449900   
   134       C          1.10722000     23.66562400     21.55949900   
   135       C          2.51050100     13.14222000     12.43937600   
   136       C         21.55949900      1.10722000     23.66562400   
   137       C         12.43937600      2.51050100     13.14222000   
   138       C          9.52449900     10.92778000      0.40437600   
   139       C         14.54550100     22.96278000     11.63062400   
   140       C          0.40437600      9.52449900     10.92778000   
   141       C         11.63062400     14.54550100     22.96278000   
   142       C         23.66562400     21.55949900      1.10722000   
   143       C         22.96278000     11.63062400     14.54550100   
   144       C         13.14222000     12.43937600      2.51050100   
   145       C         16.54812500     19.02011400     20.18991600   
   146       C         19.55687500      5.04988600      8.15491600   
   147       C         15.91508400      7.52187500      6.98511400   
   148       C          8.15491600     19.55687500      5.04988600   
   149       C          6.98511400     15.91508400      7.52187500   
   150       C         20.18991600     16.54812500     19.02011400   
   151       C          3.88008400      4.51312500     17.08488600   
   152       C         19.02011400     20.18991600     16.54812500   
   153       C         17.08488600      3.88008400      4.51312500   
   154       C          5.04988600      8.15491600     19.55687500   
   155       C          4.51312500     17.08488600      3.88008400   
   156       C          7.52187500      6.98511400     15.91508400   
   157       C         13.00261400     22.56562500      9.89758400   
   158       C         23.10238600      1.50437500     21.93258400   
   159       C          2.13741600     11.06738600     10.53062500   
   160       C         21.93258400     23.10238600      1.50437500   
   161       C         10.53062500      2.13741600     11.06738600   
   162       C          9.89758400     13.00261400     22.56562500   
   163       C         14.17241600      0.96761400     13.53937500   
   164       C         22.56562500      9.89758400     13.00261400   
   165       C         13.53937500     14.17241600      0.96761400   
   166       C          1.50437500     21.93258400     23.10238600   
   167       C          0.96761400     13.53937500     14.17241600   
   168       C         11.06738600     10.53062500      2.13741600   
   169       C         23.22514300     21.99035200     23.90873100   
   170       C         12.87985700      2.07964800     11.87373100   
   171       C         12.19626900      0.84485700      9.95535200   
   172       C         11.87373100     12.87985700      2.07964800   
   173       C          9.95535200     12.19626900      0.84485700   
   174       C         23.90873100     23.22514300     21.99035200   
   175       C          0.16126900     11.19014300     14.11464800   
   176       C         21.99035200     23.90873100     23.22514300   
   177       C         14.11464800      0.16126900     11.19014300   
   178       C          2.07964800     11.87373100     12.87985700   
   179       C         11.19014300     14.11464800      0.16126900   
   180       C          0.84485700      9.95535200     12.19626900   
   181       C         15.97285200      5.17264300      6.17876900   
   182       C         20.13214800     18.89735700     18.21376900   
   183       C          5.85623100      8.09714800     17.20764300   
   184       C         18.21376900     20.13214800     18.89735700   
   185       C         17.20764300      5.85623100      8.09714800   
   186       C          6.17876900     15.97285200      5.17264300   
   187       C         17.89123100      3.93785200      6.86235700   
   188       C          5.17264300      6.17876900     15.97285200   
   189       C          6.86235700     17.89123100      3.93785200   
   190       C         18.89735700     18.21376900     20.13214800   
   191       C          3.93785200      6.86235700     17.89123100   
   192       C          8.09714800     17.20764300      5.85623100   
   193       C         17.16672400     16.79123200     21.00829600   
   194       C         18.93827600      7.27876800      8.97329600   
   195       C         15.09670400      6.90327600      4.75623200   
   196       C          8.97329600     18.93827600      7.27876800   
   197       C          4.75623200     15.09670400      6.90327600   
   198       C         21.00829600     17.16672400     16.79123200   
   199       C          3.06170400      5.13172400     19.31376800   
   200       C         16.79123200     21.00829600     17.16672400   
   201       C         19.31376800      3.06170400      5.13172400   
   202       C          7.27876800      8.97329600     18.93827600   
   203       C          5.13172400     19.31376800      3.06170400   
   204       C          6.90327600      4.75623200     15.09670400   
   205       C         10.77373200     23.18422400      9.07920400   
   206       C          1.26126800      0.88577600     21.11420400   
   207       C          2.95579600     13.29626800     11.14922400   
   208       C         21.11420400      1.26126800      0.88577600   
   209       C         11.14922400      2.95579600     13.29626800   
   210       C          9.07920400     10.77373200     23.18422400   
   211       C         14.99079600     22.80873200     12.92077600   
   212       C         23.18422400      9.07920400     10.77373200   
   213       C         12.92077600     14.99079600     22.80873200   
   214       C          0.88577600     21.11420400      1.26126800   
   215       C         22.80873200     12.92077600     14.99079600   
   216       C         13.29626800     11.14922400      2.95579600   
   217       C         16.16300500     17.81420700     20.72908400   
   218       C         19.94199500      6.25579300      8.69408400   
   219       C         15.37591600      7.90699500      5.77920700   
   220       C          8.69408400     19.94199500      6.25579300   
   221       C          5.77920700     15.37591600      7.90699500   
   222       C         20.72908400     16.16300500     17.81420700   
   223       C          3.34091600      4.12800500     18.29079300   
   224       C         17.81420700     20.72908400     16.16300500   
   225       C         18.29079300      3.34091600      4.12800500   
   226       C          6.25579300      8.69408400     19.94199500   
   227       C          4.12800500     18.29079300      3.34091600   
   228       C          7.90699500      5.77920700     15.37591600   
   229       C         11.79670700     22.18050500      9.35841600   
   230       C          0.23829300      1.88949500     21.39341600   
   231       C          2.67658400     12.27329300     10.14550500   
   232       C         21.39341600      0.23829300      1.88949500   
   233       C         10.14550500      2.67658400     12.27329300   
   234       C          9.35841600     11.79670700     22.18050500   
   235       C         14.71158400     23.83170700     13.92449500   
   236       C         22.18050500      9.35841600     11.79670700   
   237       C         13.92449500     14.71158400     23.83170700   
   238       C          1.88949500     21.39341600      0.23829300   
   239       C         23.83170700     13.92449500     14.71158400   
   240       C         12.27329300     10.14550500      2.67658400   
   241       C         19.29932600     15.89101400     20.03346100   
   242       C         16.80567400      8.17898600      7.99846100   
   243       C         16.07153900      4.77067400      3.85601400   
   244       C          7.99846100     16.80567400      8.17898600   
   245       C          3.85601400     16.07153900      4.77067400   
   246       C         20.03346100     19.29932600     15.89101400   
   247       C          4.03653900      7.26432600     20.21398600   
   248       C         15.89101400     20.03346100     19.29932600   
   249       C         20.21398600      4.03653900      7.26432600   
   250       C          8.17898600      7.99846100     16.80567400   
   251       C          7.26432600     20.21398600      4.03653900   
   252       C          4.77067400      3.85601400     16.07153900   
   253       C          9.87351400      1.24682600     10.05403900   
   254       C          2.16148600     22.82317400     22.08903900   
   255       C          1.98096100     14.19648600     13.28182600   
   256       C         22.08903900      2.16148600     22.82317400   
   257       C         13.28182600      1.98096100     14.19648600   
   258       C         10.05403900      9.87351400      1.24682600   
   259       C         14.01596100     21.90851400     10.78817400   
   260       C          1.24682600     10.05403900      9.87351400   
   261       C         10.78817400     14.01596100     21.90851400   
   262       C         22.82317400     22.08903900      2.16148600   
   263       C         21.90851400     10.78817400     14.01596100   
   264       C         14.19648600     13.28182600      1.98096100   
   265       C         16.88029100     15.47701000     21.48728900   
   266       C         19.22470900      8.59299000      9.45228900   
   267       C         14.61771100      7.18970900      3.44201000   
   268       C          9.45228900     19.22470900      8.59299000   
   269       C          3.44201000     14.61771100      7.18970900   
   270       C         21.48728900     16.88029100     15.47701000   
   271       C          2.58271100      4.84529100     20.62799000   
   272       C         15.47701000     21.48728900     16.88029100   
   273       C         20.62799000      2.58271100      4.84529100   
   274       C          8.59299000      9.45228900     19.22470900   
   275       C          4.84529100     20.62799000      2.58271100   
   276       C          7.18970900      3.44201000     14.61771100   
   277       C          9.45951000     22.89779100      8.60021100   
   278       C          2.57549000      1.17220900     20.63521100   
   279       C          3.43478900     14.61049000     10.86279100   
   280       C         20.63521100      2.57549000      1.17220900   
   281       C         10.86279100      3.43478900     14.61049000   
   282       C          8.60021100      9.45951000     22.89779100   
   283       C         15.46978900     21.49451000     13.20720900   
   284       C         22.89779100      8.60021100      9.45951000   
   285       C         13.20720900     15.46978900     21.49451000   
   286       C          1.17220900     20.63521100      2.57549000   
   287       C         21.49451000     13.20720900     15.46978900   
   288       C         14.61049000     10.86279100      3.43478900   
   289       H         13.45031600     21.59801100     17.55184400   
   290       H         22.65468400      2.47198900      5.51684400   
   291       H         18.55315600     10.61968400      9.56301100   
   292       H          5.51684400     22.65468400      2.47198900   
   293       H          9.56301100     18.55315600     10.61968400   
   294       H         17.55184400     13.45031600     21.59801100   
   295       H          6.51815600      1.41531600     14.50698900   
   296       H         21.59801100     17.55184400     13.45031600   
   297       H         14.50698900      6.51815600      1.41531600   
   298       H          2.47198900      5.51684400     22.65468400   
   299       H          1.41531600     14.50698900      6.51815600   
   300       H         10.61968400      9.56301100     18.55315600   
   301       H         15.58051100     19.46781600     12.53565600   
   302       H         20.52448900      4.60218400      0.50065600   
   303       H         23.56934400      8.48948900      7.43281600   
   304       H          0.50065600     20.52448900      4.60218400   
   305       H          7.43281600     23.56934400      8.48948900   
   306       H         12.53565600     15.58051100     19.46781600   
   307       H         11.53434400      3.54551100     16.63718400   
   308       H         19.46781600     12.53565600     15.58051100   
   309       H         16.63718400     11.53434400      3.54551100   
   310       H          4.60218400      0.50065600     20.52448900   
   311       H          3.54551100     16.63718400     11.53434400   
   312       H          8.48948900      7.43281600     23.56934400   
   313       H         13.74878400     20.12733400     19.49910700   
   314       H         22.35621600      3.94266600      7.46410700   
   315       H         16.60589300     10.32121600      8.09233400   
   316       H          7.46410700     22.35621600      3.94266600   
   317       H          8.09233400     16.60589300     10.32121600   
   318       H         19.49910700     13.74878400     20.12733400   
   319       H          4.57089300      1.71378400     15.97766600   
   320       H         20.12733400     19.49910700     13.74878400   
   321       H         15.97766600      4.57089300      1.71378400   
   322       H          3.94266600      7.46410700     22.35621600   
   323       H          1.71378400     15.97766600      4.57089300   
   324       H         10.32121600      8.09233400     16.60589300   
   325       H         14.10983400     19.76628400     10.58839300   
   326       H         21.99516600      4.30371600     22.62339300   
   327       H          1.44660700      9.96016600      7.73128400   
   328       H         22.62339300     21.99516600      4.30371600   
   329       H          7.73128400      1.44660700      9.96016600   
   330       H         10.58839300     14.10983400     19.76628400   
   331       H         13.48160700      2.07483400     16.33871600   
   332       H         19.76628400     10.58839300     14.10983400   
   333       H         16.33871600     13.48160700      2.07483400   
   334       H          4.30371600     22.62339300     21.99516600   
   335       H          2.07483400     16.33871600     13.48160700   
   336       H          9.96016600      7.73128400      1.44660700   
   337       H         14.00392600     17.89845200     20.33674300   
   338       H         22.10107400      6.17154800      8.30174300   
   339       H         15.76825700     10.06607400      5.86345200   
   340       H          8.30174300     22.10107400      6.17154800   
   341       H          5.86345200     15.76825700     10.06607400   
   342       H         20.33674300     14.00392600     17.89845200   
   343       H          3.73325700      1.96892600     18.20654800   
   344       H         17.89845200     20.33674300     14.00392600   
   345       H         18.20654800      3.73325700      1.96892600   
   346       H          6.17154800      8.30174300     22.10107400   
   347       H          1.96892600     18.20654800      3.73325700   
   348       H         10.06607400      5.86345200     15.76825700   
   349       H         11.88095200     20.02142600      9.75075700   
   350       H          0.15404800      4.04857400     21.78575700   
   351       H          2.28424300     12.18904800      7.98642600   
   352       H         21.78575700      0.15404800      4.04857400   
   353       H          7.98642600      2.28424300     12.18904800   
   354       H          9.75075700     11.88095200     20.02142600   
   355       H         14.31924300     23.91595200     16.08357400   
   356       H         20.02142600      9.75075700     11.88095200   
   357       H         16.08357400     14.31924300     23.91595200   
   358       H          4.04857400     21.78575700      0.15404800   
   359       H         23.91595200     16.08357400     14.31924300   
   360       H         12.18904800      7.98642600      2.28424300   
   361      Tv         24.07000000      0.00000000      0.00000000   
   362      Tv          0.00000000     24.07000000      0.00000000   
   363      Tv          0.00000000      0.00000000     24.07000000   

                             CARTESIAN COORDINATES

   1    N       19.217488000    19.980507000    17.985104000
   2    N       16.887512000     4.089493000     5.950104000
   3    N       18.119896000     4.852512000     7.945507000
   4    N        5.950104000    16.887512000     4.089493000
   5    N        7.945507000    18.119896000     4.852512000
   6    N       17.985104000    19.217488000    19.980507000
   7    N        6.084896000     7.182488000    16.124493000
   8    N       19.980507000    17.985104000    19.217488000
   9    N       16.124493000     6.084896000     7.182488000
  10    N        4.089493000     5.950104000    16.887512000
  11    N        7.182488000    16.124493000     6.084896000
  12    N        4.852512000     7.945507000    18.119896000
  13    C       17.766067000    14.461256000    21.229740000
  14    C       18.338933000     9.608744000     9.194740000
  15    C       14.875260000     6.303933000     2.426256000
  16    C        9.194740000    18.338933000     9.608744000
  17    C        2.426256000    14.875260000     6.303933000
  18    C       21.229740000    17.766067000    14.461256000
  19    C        2.840260000     5.731067000    21.643744000
  20    C       14.461256000    21.229740000    17.766067000
  21    C       21.643744000     2.840260000     5.731067000
  22    C        9.608744000     9.194740000    18.338933000
  23    C        5.731067000    21.643744000     2.840260000
  24    C        6.303933000     2.426256000    14.875260000
  25    C        8.443756000    23.783567000     8.857760000
  26    C        3.591244000     0.286433000    20.892760000
  27    C        3.177240000    15.626244000    11.748567000
  28    C       20.892760000     3.591244000     0.286433000
  29    C       11.748567000     3.177240000    15.626244000
  30    C        8.857760000     8.443756000    23.783567000
  31    C       15.212240000    20.478756000    12.321433000
  32    C       23.783567000     8.857760000     8.443756000
  33    C       12.321433000    15.212240000    20.478756000
  34    C        0.286433000    20.892760000     3.591244000
  35    C       20.478756000    12.321433000    15.212240000
  36    C       15.626244000    11.748567000     3.177240000
  37    C       18.940683000    14.636967000    20.420988000
  38    C       17.164317000     9.433033000     8.385988000
  39    C       15.684012000     5.129317000     2.601967000
  40    C        8.385988000    17.164317000     9.433033000
  41    C        2.601967000    15.684012000     5.129317000
  42    C       20.420988000    18.940683000    14.636967000
  43    C        3.649012000     6.905683000    21.468033000
  44    C       14.636967000    20.420988000    18.940683000
  45    C       21.468033000     3.649012000     6.905683000
  46    C        9.433033000     8.385988000    17.164317000
  47    C        6.905683000    21.468033000     3.649012000
  48    C        5.129317000     2.601967000    15.684012000
  49    C        8.619467000     0.888183000     9.666512000
  50    C        3.415533000    23.181817000    21.701512000
  51    C        2.368488000    15.450533000    12.923183000
  52    C       21.701512000     3.415533000    23.181817000
  53    C       12.923183000     2.368488000    15.450533000
  54    C        9.666512000     8.619467000     0.888183000
  55    C       14.403488000    20.654467000    11.146817000
  56    C        0.888183000     9.666512000     8.619467000
  57    C       11.146817000    14.403488000    20.654467000
  58    C       23.181817000    21.701512000     3.415533000
  59    C       20.654467000    11.146817000    14.403488000
  60    C       15.450533000    12.923183000     2.368488000
  61    C       14.793422000    17.303923000    20.813329000
  62    C       21.311578000     6.766077000     8.778329000
  63    C       15.291671000     9.276578000     5.268923000
  64    C        8.778329000    21.311578000     6.766077000
  65    C        5.268923000    15.291671000     9.276578000
  66    C       20.813329000    14.793422000    17.303923000
  67    C        3.256671000     2.758422000    18.801077000
  68    C       17.303923000    20.813329000    14.793422000
  69    C       18.801077000     3.256671000     2.758422000
  70    C        6.766077000     8.778329000    21.311578000
  71    C        2.758422000    18.801077000     3.256671000
  72    C        9.276578000     5.268923000    15.291671000
  73    C       11.286423000    20.810922000     9.274171000
[...]
  293          H           0.156573        0.8434     0.84343
  294          H           0.142283        0.8577     0.85772
  295          H           0.174836        0.8252     0.82516
  296          H           0.156593        0.8434     0.84341
  297          H           0.173447        0.8266     0.82655
  298          H           0.173483        0.8265     0.82652
  299          H           0.144605        0.8554     0.85540
  300          H           0.175102        0.8249     0.82490
  301          H           0.162662        0.8373     0.83734
  302          H           0.155904        0.8441     0.84410
  303          H           0.148889        0.8511     0.85111
  304          H           0.168195        0.8318     0.83180
  305          H           0.161958        0.8380     0.83804
  306          H           0.168147        0.8319     0.83185
  307          H           0.148942        0.8511     0.85106
  308          H           0.161949        0.8381     0.83805
  309          H           0.154953        0.8450     0.84505
  310          H           0.155011        0.8450     0.84499
  311          H           0.162628        0.8374     0.83737
  312          H           0.155828        0.8442     0.84417
  313          H           0.145464        0.8545     0.85454
  314          H           0.178884        0.8211     0.82112
  315          H           0.176187        0.8238     0.82381
  316          H           0.154258        0.8457     0.84574
  317          H           0.151262        0.8487     0.84874
  318          H           0.154149        0.8459     0.84585
  319          H           0.176040        0.8240     0.82396
  320          H           0.151339        0.8487     0.84866
  321          H           0.167039        0.8330     0.83296
  322          H           0.167111        0.8329     0.83289
  323          H           0.145515        0.8545     0.85449
  324          H           0.178964        0.8210     0.82104
  325          H           0.156050        0.8440     0.84395
  326          H           0.159983        0.8400     0.84002
  327          H           0.169564        0.8304     0.83044
  328          H           0.149195        0.8508     0.85080
  329          H           0.151641        0.8484     0.84836
  330          H           0.149143        0.8509     0.85086
  331          H           0.169580        0.8304     0.83042
  332          H           0.151611        0.8484     0.84839
  333          H           0.173003        0.8270     0.82700
  334          H           0.173016        0.8270     0.82698
  335          H           0.155962        0.8440     0.84404
  336          H           0.159934        0.8401     0.84007
  337          H           0.159437        0.8406     0.84056
  338          H           0.172186        0.8278     0.82781
  339          H           0.184328        0.8157     0.81567
  340          H           0.167504        0.8325     0.83250
  341          H           0.150584        0.8494     0.84942
  342          H           0.167560        0.8324     0.83244
  343          H           0.184401        0.8156     0.81560
  344          H           0.150659        0.8493     0.84934
  345          H           0.177447        0.8226     0.82255
  346          H           0.177267        0.8227     0.82273
  347          H           0.159598        0.8404     0.84040
  348          H           0.172289        0.8277     0.82771
  349          H           0.171757        0.8282     0.82824
  350          H           0.166811        0.8332     0.83319
  351          H           0.168071        0.8319     0.83193
  352          H           0.170596        0.8294     0.82940
  353          H           0.167845        0.8322     0.83215
  354          H           0.170571        0.8294     0.82943
  355          H           0.168095        0.8319     0.83191
  356          H           0.167812        0.8322     0.83219
  357          H           0.167686        0.8323     0.83231
  358          H           0.167683        0.8323     0.83232
  359          H           0.171702        0.8283     0.82830
  360          H           0.166783        0.8332     0.83322


          ATOMIC ORBITAL ELECTRON POPULATIONS

     Atom    s        px        py        pz   
    1  N   1.54620   1.23197   1.37639   1.10029
    2  N   1.53919   1.19660   1.26542   1.10992
    3  N   1.55696   1.12572   1.25666   1.40366
    4  N   1.54149   1.10702   1.21573   1.35871
    5  N   1.54048   1.34536   1.10185   1.20946
    6  N   1.54148   1.10691   1.21573   1.35894
    7  N   1.55681   1.12570   1.25603   1.40397
    8  N   1.54035   1.34476   1.10187   1.20916
    9  N   1.53436   1.29730   1.11099   1.16239
   10  N   1.53410   1.29504   1.11081   1.16141
   11  N   1.54610   1.23156   1.37579   1.10032
   12  N   1.53959   1.19809   1.26732   1.11011
   13  C   1.08579   0.97272   1.06006   0.97838
   14  C   1.09033   0.96730   1.07682   0.97442
   15  C   1.07784   1.07239   1.00999   1.08672
   16  C   1.07399   1.08417   1.01771   1.07631
   17  C   1.07581   1.06453   1.04501   1.00016
   18  C   1.07411   1.08337   1.01737   1.07629
   19  C   1.07784   1.07252   1.01005   1.08674
   20  C   1.07566   1.06468   1.04630   1.00071
   21  C   1.09111   1.07797   0.97585   0.96939
   22  C   1.09128   1.07782   0.97447   0.96879
   23  C   1.08586   0.97258   1.06006   0.97803
   24  C   1.09017   0.96781   1.07694   0.97561
   25  C   1.08287   1.07722   0.99052   1.02567
   26  C   1.08962   1.06157   0.97385   0.97314
   27  C   1.08104   1.04594   1.07983   1.00176
   28  C   1.08560   1.00287   1.06876   0.98383
   29  C   1.08789   0.97971   0.98358   1.06010
   30  C   1.08557   1.00309   1.06875   0.98395
   31  C   1.08108   1.04565   1.07980   1.00163
   32  C   1.08788   0.97976   0.98364   1.06007
   33  C   1.08007   1.00293   1.05543   1.08573
   34  C   1.08009   1.00285   1.05527   1.08573
   35  C   1.08286   1.07721   0.99053   1.02569
   36  C   1.08962   1.06154   0.97387   0.97315
   37  C   1.07005   1.03595   1.03942   1.06244
   38  C   1.08127   1.01068   1.03780   1.00499
   39  C   1.09122   0.91515   0.96253   1.02593
   40  C   1.08634   0.94418   0.97347   1.02967
   41  C   1.07459   1.02853   1.00918   1.00997
   42  C   1.08629   0.94478   0.97377   1.02975
   43  C   1.09129   0.91471   0.96226   1.02595
   44  C   1.07477   1.02844   1.00787   1.00926
   45  C   1.08512   1.03960   0.98048   0.99636
   46  C   1.08496   1.03974   0.98179   0.99709
   47  C   1.07007   1.03595   1.03952   1.06250
   48  C   1.08135   1.01024   1.03765   1.00415
   49  C   1.08333   1.04011   1.00164   0.99446
   50  C   1.08042   1.05884   1.01481   1.02369
   51  C   1.08526   0.97899   1.03893   0.99254
   52  C   1.08171   1.00619   1.04852   1.00586
   53  C   1.07900   1.01707   1.02934   1.05750
   54  C   1.08171   1.00618   1.04851   1.00584
   55  C   1.08525   0.97907   1.03897   0.99259
   56  C   1.07899   1.01710   1.02942   1.05752
   57  C   1.08696   0.98727   0.96719   1.03438
   58  C   1.08697   0.98726   0.96717   1.03439
   59  C   1.08332   1.04011   1.00168   0.99454
   60  C   1.08040   1.05886   1.01486   1.02379
   61  C   1.08948   1.00679   0.98058   0.90612
   62  C   1.07107   1.00430   1.04269   1.11089
   63  C   1.07419   1.11773   1.01616   1.04498
   64  C   1.08337   1.01682   1.02281   1.01409
   65  C   1.08558   0.99417   0.93828   1.00449
   66  C   1.08337   1.01667   1.02275   1.01400
   67  C   1.07420   1.11773   1.01616   1.04497
   68  C   1.08558   0.99431   0.93873   1.00464
   69  C   1.07209   1.03630   1.09443   1.00144
   70  C   1.07207   1.03617   1.09402   1.00124
   71  C   1.08950   1.00690   0.98056   0.90625
   72  C   1.07110   1.00452   1.04279   1.11115
   73  C   1.08330   1.02231   1.02323   1.03280
   74  C   1.09241   0.99818   1.02922   0.94909
   75  C   1.06938   1.16348   1.05289   1.02689
   76  C   1.09280   0.94701   0.99130   1.03091
   77  C   1.09042   1.03001   0.96456   0.99639
   78  C   1.09275   0.94749   0.99134   1.03096
   79  C   1.06946   1.16278   1.05280   1.02683
   80  C   1.09039   1.03006   0.96485   0.99641
   81  C   1.07076   1.02833   1.15666   1.05130
   82  C   1.07083   1.02832   1.15610   1.05119
   83  C   1.08332   1.02223   1.02327   1.03261
   84  C   1.09239   0.99820   1.02923   0.94924
   85  C   1.07592   0.95416   0.89115   0.93195
   86  C   1.06092   0.96057   1.04520   1.00314
   87  C   1.06445   1.00737   0.97500   1.04448
   88  C   1.07064   0.97554   0.97492   0.97316
   89  C   1.07734   0.88663   0.93192   0.95737
   90  C   1.07059   0.97561   0.97482   0.97340
   91  C   1.06445   1.00740   0.97503   1.04455
   92  C   1.07736   0.88691   0.93215   0.95760
   93  C   1.05885   1.06011   1.00925   0.95956
   94  C   1.05883   1.05994   1.00913   0.95933
   95  C   1.07589   0.95423   0.89148   0.93212
   96  C   1.06095   0.96077   1.04527   1.00321
   97  C   1.06711   0.99277   0.96282   0.98396
   98  C   1.07835   0.89194   0.96437   0.93933
   99  C   1.05557   1.02001   1.09463   0.96978
  100  C   1.07402   0.95229   0.92517   0.96718
  101  C   1.07618   0.96802   0.94593   0.90923
  102  C   1.07395   0.95253   0.92574   0.96725
  103  C   1.05566   1.01980   1.09391   0.96972
  104  C   1.07612   0.96809   0.94608   0.90966
  105  C   1.05142   0.96856   1.03243   1.12449
  106  C   1.05145   0.96855   1.03234   1.12420
  107  C   1.06707   0.99298   0.96283   0.98402
  108  C   1.07835   0.89196   0.96437   0.93935
  109  C   1.07195   0.95446   0.95778   0.96426
  110  C   1.06988   0.97498   0.97976   0.95414
  111  C   1.06908   0.95822   0.98650   0.98612
  112  C   1.07094   0.96106   0.95145   0.95472
  113  C   1.07278   0.96876   0.96143   0.96173
  114  C   1.07095   0.96106   0.95132   0.95463
  115  C   1.06907   0.95823   0.98651   0.98613
  116  C   1.07278   0.96878   0.96140   0.96173
  117  C   1.06630   0.98679   0.95531   0.99218
  118  C   1.06629   0.98681   0.95531   0.99221
  119  C   1.07196   0.95429   0.95766   0.96425
  120  C   1.06990   0.97489   0.97971   0.95413
  121  C   1.05331   1.01160   0.95837   1.09916
  122  C   1.05831   1.01125   0.95149   1.07823
  123  C   1.06295   0.94072   0.95478   0.94034
  124  C   1.05783   0.99540   0.96072   0.95517
  125  C   1.05946   0.95414   1.01095   0.97637
  126  C   1.05777   0.99658   0.96121   0.95524
  127  C   1.06296   0.94078   0.95467   0.94045
  128  C   1.05946   0.95416   1.01023   0.97593
  129  C   1.05858   0.95737   1.09658   1.01174
  130  C   1.05848   0.95747   1.09873   1.01263
  131  C   1.05319   1.01192   0.95844   1.10040
  132  C   1.05837   1.01047   0.95126   1.07615
  133  C   1.06529   0.97826   0.98368   0.99022
  134  C   1.06622   0.99443   0.98578   1.01187
  135  C   1.06769   0.97417   0.97455   0.97928
  136  C   1.06427   1.00283   0.98787   0.98344
  137  C   1.06625   0.98742   1.01285   0.99323
  138  C   1.06428   1.00275   0.98786   0.98342
  139  C   1.06768   0.97433   0.97460   0.97933
  140  C   1.06626   0.98742   1.01286   0.99325
  141  C   1.06673   0.97659   0.96798   0.97175
  142  C   1.06672   0.97661   0.96807   0.97177
  143  C   1.06529   0.97828   0.98369   0.99025
  144  C   1.06622   0.99444   0.98578   1.01189
  145  C   1.08238   0.74466   0.95396   0.98308
  146  C   1.07659   0.73500   0.98864   1.05029
  147  C   1.06592   1.14074   0.75045   1.02897
  148  C   1.07289   1.07040   0.76935   0.99920
  149  C   1.09091   0.92559   0.92398   0.77014
  150  C   1.07283   1.07080   0.76904   0.99938
  151  C   1.06598   1.14079   0.75058   1.02902
  152  C   1.09090   0.92575   0.92414   0.77041
  153  C   1.08690   0.97695   1.01068   0.73915
  154  C   1.08712   0.97618   1.00889   0.73899
  155  C   1.08221   0.74443   0.95464   0.98444
  156  C   1.07631   0.73506   0.98938   1.05204
  157  C   1.07470   0.97680   0.96380   0.99607
  158  C   1.07834   0.95817   0.97543   0.96124
  159  C   1.05976   1.10201   1.01278   0.96205
  160  C   1.08292   0.93034   0.95041   0.97164
  161  C   1.07995   0.97281   0.95528   0.95926
  162  C   1.08290   0.93053   0.95049   0.97164
  163  C   1.05982   1.10159   1.01263   0.96207
  164  C   1.07993   0.97282   0.95541   0.95931
  165  C   1.06015   0.96290   1.09608   1.00981
  166  C   1.06021   0.96291   1.09569   1.00967
  167  C   1.07473   0.97673   0.96382   0.99587
  168  C   1.07833   0.95818   0.97543   0.96128
  169  C   1.05257   0.98913   1.03291   0.98719
  170  C   1.05962   0.99508   0.99737   0.97532
  171  C   1.05391   0.98635   0.99344   1.02984
  172  C   1.06025   0.96939   0.98769   0.98005
  173  C   1.05542   1.00171   0.97423   0.98545
  174  C   1.06025   0.96938   0.98764   0.97998
  175  C   1.05391   0.98635   0.99347   1.02987
  176  C   1.05544   1.00153   0.97420   0.98538
  177  C   1.05446   1.03841   0.99006   0.99773
  178  C   1.05443   1.03863   0.99011   0.99778
  179  C   1.05256   0.98920   1.03311   0.98724
  180  C   1.05962   0.99512   0.99741   0.97532
  181  C   1.01636   1.21758   0.93153   0.95177
  182  C   1.02728   1.13701   0.90722   0.91320
  183  C   1.05534   0.86101   0.91577   0.85305
  184  C   1.01785   0.92424   1.16642   0.89071
  185  C   1.03978   0.79973   0.89620   1.03284
  186  C   1.01786   0.92413   1.16578   0.89031
  187  C   1.05507   0.86169   0.91837   0.85522
  188  C   1.03921   0.80072   0.89727   1.03704
  189  C   1.03111   0.83158   0.89417   1.06004
  190  C   1.03079   0.83211   0.89470   1.06200
  191  C   1.01666   1.21588   0.93274   0.95138
  192  C   1.02707   1.13889   0.90777   0.91376
  193  C   1.06005   0.94920   0.96439   0.93481
  194  C   1.06449   0.95002   0.99256   0.96291
  195  C   1.04706   1.14103   0.97303   1.01142
  196  C   1.04195   1.13376   0.97615   0.99311
  197  C   1.05518   0.97428   0.98021   0.95577
  198  C   1.04207   1.13274   0.97600   0.99302
  199  C   1.04707   1.14118   0.97306   1.01146
  200  C   1.05498   0.97447   0.98203   0.95606
  201  C   1.06881   0.99230   0.93818   0.94749
  202  C   1.06907   0.99199   0.93541   0.94712
  203  C   1.06006   0.94923   0.96436   0.93491
  204  C   1.06421   0.95036   0.99282   0.96557
  205  C   1.06209   0.98712   0.97384   1.01573
  206  C   1.05953   0.96843   0.97561   0.99492
  207  C   1.06361   1.03430   0.99938   0.97518
  208  C   1.06030   0.99850   0.97222   0.97603
  209  C   1.05987   0.97568   0.99592   0.96978
  210  C   1.06030   0.99860   0.97225   0.97605
  211  C   1.06360   1.03416   0.99931   0.97516
  212  C   1.05988   0.97570   0.99594   0.96978
  213  C   1.06415   0.97477   1.03447   1.00114
  214  C   1.06415   0.97475   1.03437   1.00109
  215  C   1.06209   0.98710   0.97383   1.01572
  216  C   1.05953   0.96842   0.97561   0.99492
  217  C   1.03677   0.98235   0.98003   1.22588
  218  C   1.06432   0.99692   0.92788   1.00324
  219  C   1.07852   0.85269   0.98213   0.91526
  220  C   1.06499   0.97105   0.97221   0.94021
  221  C   1.03784   0.96874   1.22366   0.98867
  222  C   1.06493   0.97156   0.97224   0.94036
  223  C   1.07859   0.85226   0.98218   0.91529
  224  C   1.03802   0.96848   1.22210   0.98855
  225  C   1.06513   0.93593   1.01346   1.00288
  226  C   1.06484   0.93619   1.01635   1.00310
  227  C   1.03688   0.98225   0.97999   1.22477
  228  C   1.06453   0.99664   0.92762   1.00080
  229  C   1.06620   0.95281   0.96906   0.97981
  230  C   1.06208   0.96891   0.96525   1.03107
  231  C   1.07524   0.87459   0.92673   0.96969
  232  C   1.05888   1.05657   0.97513   0.96193
  233  C   1.06093   0.96402   1.03711   0.96926
  234  C   1.05889   1.05638   0.97509   0.96189
  235  C   1.07521   0.87498   0.92683   0.96973
  236  C   1.06094   0.96400   1.03701   0.96924
  237  C   1.07475   0.96824   0.87684   0.92858
  238  C   1.07472   0.96825   0.87719   0.92867
  239  C   1.06617   0.95288   0.96903   0.98006
  240  C   1.06208   0.96890   0.96524   1.03105
  241  C   1.06410   0.95465   0.97538   0.97089
  242  C   1.06306   0.96290   0.97704   0.97126
  243  C   1.05069   1.05969   1.02480   0.99494
  244  C   1.05811   1.04864   1.02249   0.98756
  245  C   1.05039   0.98525   1.05835   1.01416
  246  C   1.05825   1.04784   1.02193   0.98747
  247  C   1.05071   1.05979   1.02504   0.99492
  248  C   1.05035   0.98536   1.05902   1.01482
  249  C   1.06343   0.97384   0.97846   0.97338
  250  C   1.06357   0.97364   0.97731   0.97251
  251  C   1.06424   0.95432   0.97530   0.97024
  252  C   1.06290   0.96351   0.97727   0.97225
  253  C   1.06742   0.98124   0.98854   0.99053
  254  C   1.07632   0.96198   0.94362   0.93079
  255  C   1.06423   0.99965   0.97923   0.99722
  256  C   1.07176   0.96966   0.97620   0.97231
  257  C   1.07617   0.94399   0.93158   0.96108
  258  C   1.07175   0.96973   0.97619   0.97237
  259  C   1.06426   0.99945   0.97919   0.99707
  260  C   1.07617   0.94394   0.93151   0.96104
  261  C   1.06145   1.01181   1.02056   0.98712
  262  C   1.06147   1.01177   1.02052   0.98713
  263  C   1.06742   0.98123   0.98852   0.99050
  264  C   1.07633   0.96194   0.94354   0.93069
  265  C   1.05778   0.98308   0.98793   1.06420
  266  C   1.06513   0.98180   0.95984   0.98901
  267  C   1.07185   0.90240   0.94813   0.95219
  268  C   1.06716   0.93771   0.94426   0.96910
  269  C   1.05706   0.98206   1.04701   0.97691
  270  C   1.06716   0.93803   0.94441   0.96910
  271  C   1.07186   0.90231   0.94805   0.95214
  272  C   1.05718   0.98197   1.04569   0.97645
  273  C   1.06530   0.95572   0.98804   0.98030
  274  C   1.06523   0.95586   0.98925   0.98078
  275  C   1.05783   0.98300   0.98795   1.06390
  276  C   1.06520   0.98138   0.95977   0.98790
  277  C   1.06777   0.96998   0.96590   0.97345
  278  C   1.05829   0.99265   0.97854   1.05239
  279  C   1.06914   0.94305   0.95677   0.96091
  280  C   1.06348   1.01361   0.98840   0.96805
  281  C   1.05842   0.97601   1.04801   0.99207
  282  C   1.06349   1.01343   0.98836   0.96798
  283  C   1.06911   0.94336   0.95686   0.96100
  284  C   1.05841   0.97599   1.04801   0.99207
  285  C   1.07164   0.95644   0.92317   0.95182
  286  C   1.07163   0.95647   0.92329   0.95185
  287  C   1.06777   0.96998   0.96589   0.97347
  288  C   1.05828   0.99266   0.97855   1.05246
  289  H   0.85533
  290  H   0.82487
  291  H   0.82516
  292  H   0.85767
  293  H   0.84343
  294  H   0.85772
  295  H   0.82516
  296  H   0.84341
  297  H   0.82655
  298  H   0.82652
  299  H   0.85540
  300  H   0.82490
  301  H   0.83734
  302  H   0.84410
  303  H   0.85111
  304  H   0.83180
  305  H   0.83804
  306  H   0.83185
  307  H   0.85106
  308  H   0.83805
  309  H   0.84505
  310  H   0.84499
  311  H   0.83737
  312  H   0.84417
  313  H   0.85454
  314  H   0.82112
  315  H   0.82381
  316  H   0.84574
  317  H   0.84874
  318  H   0.84585
  319  H   0.82396
  320  H   0.84866
  321  H   0.83296
  322  H   0.83289
  323  H   0.85449
  324  H   0.82104
  325  H   0.84395
  326  H   0.84002
  327  H   0.83044
  328  H   0.85080
  329  H   0.84836
  330  H   0.85086
  331  H   0.83042
  332  H   0.84839
  333  H   0.82700
  334  H   0.82698
  335  H   0.84404
  336  H   0.84007
  337  H   0.84056
  338  H   0.82781
  339  H   0.81567
  340  H   0.83250
  341  H   0.84942
  342  H   0.83244
  343  H   0.81560
  344  H   0.84934
  345  H   0.82255
  346  H   0.82273
  347  H   0.84040
  348  H   0.82771
  349  H   0.82824
  350  H   0.83319
  351  H   0.83193
  352  H   0.82940
  353  H   0.83215
  354  H   0.82943
  355  H   0.83191
  356  H   0.83219
  357  H   0.83231
  358  H   0.83232
  359  H   0.82830
  360  H   0.83322

 **********************
 *                    *
 * JOB ENDED NORMALLY *
 *                    *
 **********************



 TOTAL JOB TIME:           215.07 SECONDS

 == MOPAC DONE ==
