 *******************************************************************************
 **                                                                           **
 **                              MOPAC v22.1.0                                **
 **                                                                           **
 *******************************************************************************
 **          Digital Object Identifier (DOI): 10.5281/zenodo.6511958          **
 **    Visit the DOI location for information on how to cite this program.    **
 *******************************************************************************

                              PM7 CALCULATION RESULTS

 *******************************************************************************
 *  CALCULATION DONE:                                Wed Jan 31 09:25:53 2024  *
 *  PM7        - The PM7 Hamiltonian to be used
 *  NOOPT      - DO NOT OPTIMIZE ANY COORDINATES
 *
 *
 *
 *                 CHARGE ON SYSTEM = 0
 *
 *
 *
 *  T=         - A TIME OF 172800.0 SECONDS REQUESTED
 *  DUMP=N     - RESTART FILE WRITTEN EVERY 7200.0 SECONDS REQUESTED
 *******************************************************************************
PM7 CHARGE=0 NOOPT


   ATOM   CHEMICAL          X               Y               Z
  NUMBER   SYMBOL      (ANGSTROMS)     (ANGSTROMS)     (ANGSTROMS)

     1       C         17.76606700     14.46125600     21.22974000   
     2       C          2.84026000      5.73106700     21.64374400   
     3       C          3.17724000     15.62624400     11.74856700   
     4       C         21.22974000     17.76606700     14.46125600   
     5       C         21.64374400      2.84026000      5.73106700   
     6       C          3.59124400      0.28643300     20.89276000   
     7       C         14.46125600     21.22974000     17.76606700   
     8       C          5.73106700     21.64374400      2.84026000   
     9       C         15.62624400     11.74856700      3.17724000   
    10       C          6.30393300      2.42625600     14.87526000   
    11       C         20.47875600     12.32143300     15.21224000   
    12       C         20.89276000      3.59124400      0.28643300   
    13       C         12.32143300     15.21224000     20.47875600   
    14       C         15.21224000     20.47875600     12.32143300   
    15       C          8.44375600     23.78356700      8.85776000   
    16       C         18.33893300      9.60874400      9.19474000   
    17       C          9.60874400      9.19474000     18.33893300   
    18       C         14.87526000      6.30393300      2.42625600   
    19       C          2.42625600     14.87526000      6.30393300   
    20       C         23.78356700      8.85776000      8.44375600   
    21       C          8.85776000      8.44375600     23.78356700   
    22       C         11.74856700      3.17724000     15.62624400   
    23       C          0.28643300     20.89276000      3.59124400   
    24       C          9.19474000     18.33893300      9.60874400   
    25       C         18.94068300     14.63696700     20.42098800   
    26       C          3.64901200      6.90568300     21.46803300   
    27       C          2.36848800     15.45053300     12.92318300   
    28       C         20.42098800     18.94068300     14.63696700   
    29       C         21.46803300      3.64901200      6.90568300   
    30       C          3.41553300     23.18181700     21.70151200   
    31       C         14.63696700     20.42098800     18.94068300   
    32       C          6.90568300     21.46803300      3.64901200   
    33       C         15.45053300     12.92318300      2.36848800   
    34       C          5.12931700      2.60196700     15.68401200   
    35       C         20.65446700     11.14681700     14.40348800   
    36       C         21.70151200      3.41553300     23.18181700   
    37       C         11.14681700     14.40348800     20.65446700   
    38       C         14.40348800     20.65446700     11.14681700   
    39       C          8.61946700      0.88818300      9.66651200   
    40       C         17.16431700      9.43303300      8.38598800   
    41       C          9.43303300      8.38598800     17.16431700   
    42       C         15.68401200      5.12931700      2.60196700   
    43       C          2.60196700     15.68401200      5.12931700   
    44       C          0.88818300      9.66651200      8.61946700   
    45       C          9.66651200      8.61946700      0.88818300   
    46       C         12.92318300      2.36848800     15.45053300   
    47       C         23.18181700     21.70151200      3.41553300   
    48       C          8.38598800     17.16431700      9.43303300   
    49       C         15.55884800     15.38313700     22.14199300   
    50       C          1.92800700      3.52384800     20.72186300   
    51       C          4.08949300     14.70436300      9.54134800   
    52       C         22.14199300     15.55884800     15.38313700   
    53       C         20.72186300      1.92800700      3.52384800   
    54       C          2.66936300      2.49365200     19.98050700   
    55       C         15.38313700     22.14199300     15.55884800   
    56       C          3.52384800     20.72186300      1.92800700   
    57       C         14.70436300      9.54134800      4.08949300   
    58       C          8.51115200      3.34813700     13.96300700   
    59       C         21.40063700     14.52865200     16.12449300   
    60       C         19.98050700      2.66936300      2.49365200   
    61       C         14.52865200     16.12449300     21.40063700   
    62       C         16.12449300     21.40063700     14.52865200   
    63       C          9.36563700     21.57634800      7.94550700   
    64       C         20.54615200      8.68686300     10.10699300   
    65       C          8.68686300     10.10699300     20.54615200   
    66       C         13.96300700      8.51115200      3.34813700   
    67       C          3.34813700     13.96300700      8.51115200   
    68       C         21.57634800      7.94550700      9.36563700   
    69       C          7.94550700      9.36563700     21.57634800   
    70       C          9.54134800      4.08949300     14.70436300   
    71       C          2.49365200     19.98050700      2.66936300   
    72       C         10.10699300     20.54615200      8.68686300   
    73       C         19.21748800     19.98050700     17.98510400   
    74       C          6.08489600      7.18248800     16.12449300   
    75       C         24.00260400     10.10699300     13.19998800   
    76       C         17.98510400     19.21748800     19.98050700   
    77       C         16.12449300      6.08489600      7.18248800   
    78       C         22.14199300     22.90501200      0.06739600   
    79       C         19.98050700     17.98510400     19.21748800   
    80       C          7.18248800     16.12449300      6.08489600   
    81       C         10.10699300     13.19998800     24.00260400   
    82       C          4.85251200      7.94550700     18.11989600   
    83       C          1.92800700     10.87001200     11.96760400   
    84       C          0.06739600     22.14199300     22.90501200   
    85       C         10.87001200     11.96760400      1.92800700   
    86       C         11.96760400      1.92800700     10.87001200   
    87       C         13.96300700      1.16498800     12.10239600   
    88       C         16.88751200      4.08949300      5.95010400   
    89       C          4.08949300      5.95010400     16.88751200   
    90       C         18.11989600      4.85251200      7.94550700   
    91       C          7.94550700     18.11989600      4.85251200   
    92       C          1.16498800     12.10239600     13.96300700   
    93       C         12.10239600     13.96300700      1.16498800   
    94       C         13.19998800     24.00260400     10.10699300   
    95       C         22.90501200      0.06739600     22.14199300   
    96       C          5.95010400     16.88751200      4.08949300   
    97       C         18.45687600     16.94528000     20.56300100   
    98       C          3.50699900      6.42187600     19.15972000   
    99       C          2.51050100     13.14222000     12.43937600   
   100       C         20.56300100     18.45687600     16.94528000   
   101       C         19.15972000      3.50699900      6.42187600   
   102       C          1.10722000     23.66562400     21.55949900   
   103       C         16.94528000     20.56300100     18.45687600   
   104       C          6.42187600     19.15972000      3.50699900   
   105       C         13.14222000     12.43937600      2.51050100   
   106       C          5.61312400      4.91028000     15.54199900   
   107       C         22.96278000     11.63062400     14.54550100   
   108       C         21.55949900      1.10722000     23.66562400   
   109       C         11.63062400     14.54550100     22.96278000   
   110       C         14.54550100     22.96278000     11.63062400   
   111       C         10.92778000      0.40437600      9.52449900   
   112       C         17.64812400      7.12472000      8.52800100   
   113       C          7.12472000      8.52800100     17.64812400   
   114       C         15.54199900      5.61312400      4.91028000   
   115       C          4.91028000     15.54199900      5.61312400   
   116       C          0.40437600      9.52449900     10.92778000   
   117       C          9.52449900     10.92778000      0.40437600   
   118       C         12.43937600      2.51050100     13.14222000   
   119       C         23.66562400     21.55949900      1.10722000   
   120       C          8.52800100     17.64812400      7.12472000   
   121       C         16.54812500     19.02011400     20.18991600   
   122       C          3.88008400      4.51312500     17.08488600   
   123       C          2.13741600     11.06738600     10.53062500   
   124       C         20.18991600     16.54812500     19.02011400   
   125       C         17.08488600      3.88008400      4.51312500   
   126       C         23.10238600      1.50437500     21.93258400   
   127       C         19.02011400     20.18991600     16.54812500   
   128       C          4.51312500     17.08488600      3.88008400   
   129       C         11.06738600     10.53062500      2.13741600   
   130       C          7.52187500      6.98511400     15.91508400   
   131       C          0.96761400     13.53937500     14.17241600   
   132       C         21.93258400     23.10238600      1.50437500   
   133       C         13.53937500     14.17241600      0.96761400   
   134       C         14.17241600      0.96761400     13.53937500   
   135       C         13.00261400     22.56562500      9.89758400   
   136       C         19.55687500      5.04988600      8.15491600   
   137       C          5.04988600      8.15491600     19.55687500   
   138       C         15.91508400      7.52187500      6.98511400   
   139       C          6.98511400     15.91508400      7.52187500   
   140       C         22.56562500      9.89758400     13.00261400   
   141       C          9.89758400     13.00261400     22.56562500   
   142       C         10.53062500      2.13741600     11.06738600   
   143       C          1.50437500     21.93258400     23.10238600   
   144       C          8.15491600     19.55687500      5.04988600   
   145       C         23.22514300     21.99035200     23.90873100   
   146       C          0.16126900     11.19014300     14.11464800   
   147       C          5.85623100      8.09714800     17.20764300   
   148       C         23.90873100     23.22514300     21.99035200   
   149       C         14.11464800      0.16126900     11.19014300   
   150       C         20.13214800     18.89735700     18.21376900   
   151       C         21.99035200     23.90873100     23.22514300   
   152       C         11.19014300     14.11464800      0.16126900   
   153       C          8.09714800     17.20764300      5.85623100   
   154       C          0.84485700      9.95535200     12.19626900   
   155       C          3.93785200      6.86235700     17.89123100   
   156       C         18.21376900     20.13214800     18.89735700   
   157       C          6.86235700     17.89123100      3.93785200   
   158       C         17.89123100      3.93785200      6.86235700   
   159       C         15.97285200      5.17264300      6.17876900   
   160       C         12.87985700      2.07964800     11.87373100   
   161       C          2.07964800     11.87373100     12.87985700   
   162       C         12.19626900      0.84485700      9.95535200   
   163       C          9.95535200     12.19626900      0.84485700   
   164       C          5.17264300      6.17876900     15.97285200   
   165       C          6.17876900     15.97285200      5.17264300   
   166       C         17.20764300      5.85623100      8.09714800   
   167       C         18.89735700     18.21376900     20.13214800   
   168       C         11.87373100     12.87985700      2.07964800   
   169       C         17.16672400     16.79123200     21.00829600   
   170       C          3.06170400      5.13172400     19.31376800   
   171       C          2.95579600     13.29626800     11.14922400   
   172       C         21.00829600     17.16672400     16.79123200   
   173       C         19.31376800      3.06170400      5.13172400   
   174       C          1.26126800      0.88577600     21.11420400   
   175       C         16.79123200     21.00829600     17.16672400   
   176       C          5.13172400     19.31376800      3.06170400   
   177       C         13.29626800     11.14922400      2.95579600   
   178       C          6.90327600      4.75623200     15.09670400   
   179       C         22.80873200     12.92077600     14.99079600   
   180       C         21.11420400      1.26126800      0.88577600   
   181       C         12.92077600     14.99079600     22.80873200   
   182       C         14.99079600     22.80873200     12.92077600   
   183       C         10.77373200     23.18422400      9.07920400   
   184       C         18.93827600      7.27876800      8.97329600   
   185       C          7.27876800      8.97329600     18.93827600   
   186       C         15.09670400      6.90327600      4.75623200   
   187       C          4.75623200     15.09670400      6.90327600   
   188       C         23.18422400      9.07920400     10.77373200   
   189       C          9.07920400     10.77373200     23.18422400   
   190       C         11.14922400      2.95579600     13.29626800   
   191       C          0.88577600     21.11420400      1.26126800   
   192       C          8.97329600     18.93827600      7.27876800   
   193       C         16.16300500     17.81420700     20.72908400   
   194       C          3.34091600      4.12800500     18.29079300   
   195       C          2.67658400     12.27329300     10.14550500   
   196       C         20.72908400     16.16300500     17.81420700   
   197       C         18.29079300      3.34091600      4.12800500   
   198       C          0.23829300      1.88949500     21.39341600   
   199       C         17.81420700     20.72908400     16.16300500   
   200       C          4.12800500     18.29079300      3.34091600   
   201       C         12.27329300     10.14550500      2.67658400   
   202       C          7.90699500      5.77920700     15.37591600   
   203       C         23.83170700     13.92449500     14.71158400   
   204       C         21.39341600      0.23829300      1.88949500   
   205       C         13.92449500     14.71158400     23.83170700   
   206       C         14.71158400     23.83170700     13.92449500   
   207       C         11.79670700     22.18050500      9.35841600   
   208       C         19.94199500      6.25579300      8.69408400   
   209       C          6.25579300      8.69408400     19.94199500   
   210       C         15.37591600      7.90699500      5.77920700   
   211       C          5.77920700     15.37591600      7.90699500   
   212       C         22.18050500      9.35841600     11.79670700   
   213       C          9.35841600     11.79670700     22.18050500   
   214       C         10.14550500      2.67658400     12.27329300   
   215       C          1.88949500     21.39341600      0.23829300   
   216       C          8.69408400     19.94199500      6.25579300   
   217       C         19.29932600     15.89101400     20.03346100   
   218       C          4.03653900      7.26432600     20.21398600   
   219       C          1.98096100     14.19648600     13.28182600   
   220       C         20.03346100     19.29932600     15.89101400   
   221       C         20.21398600      4.03653900      7.26432600   
   222       C          2.16148600     22.82317400     22.08903900   
   223       C         15.89101400     20.03346100     19.29932600   
   224       C          7.26432600     20.21398600      4.03653900   
   225       C         14.19648600     13.28182600      1.98096100   
   226       C          4.77067400      3.85601400     16.07153900   
   227       C         21.90851400     10.78817400     14.01596100   
   228       C         22.08903900      2.16148600     22.82317400   
   229       C         10.78817400     14.01596100     21.90851400   
   230       C         14.01596100     21.90851400     10.78817400   
   231       C          9.87351400      1.24682600     10.05403900   
   232       C         16.80567400      8.17898600      7.99846100   
   233       C          8.17898600      7.99846100     16.80567400   
   234       C         16.07153900      4.77067400      3.85601400   
   235       C          3.85601400     16.07153900      4.77067400   
   236       C          1.24682600     10.05403900      9.87351400   
   237       C         10.05403900      9.87351400      1.24682600   
   238       C         13.28182600      1.98096100     14.19648600   
   239       C         22.82317400     22.08903900      2.16148600   
   240       C          7.99846100     16.80567400      8.17898600   
   241       C         14.79342200     17.30392300     20.81332900   
   242       C          3.25667100      2.75842200     18.80107700   
   243       C          2.76082900     12.78357700      8.77592200   
   244       C         20.81332900     14.79342200     17.30392300   
   245       C         18.80107700      3.25667100      2.75842200   
   246       C          0.74857700      3.25907800     21.30917100   
   247       C         17.30392300     20.81332900     14.79342200   
   248       C          2.75842200     18.80107700      3.25667100   
   249       C         12.78357700      8.77592200      2.76082900   
   250       C          9.27657800      5.26892300     15.29167100   
   251       C         23.32142300     15.29407800     14.79582900   
   252       C         21.30917100      0.74857700      3.25907800   
   253       C         15.29407800     14.79582900     23.32142300   
   254       C         14.79582900     23.32142300     15.29407800   
   255       C         11.28642300     20.81092200      9.27417100   
   256       C         21.31157800      6.76607700      8.77832900   
   257       C          6.76607700      8.77832900     21.31157800   
   258       C         15.29167100      9.27657800      5.26892300   
   259       C          5.26892300     15.29167100      9.27657800   
   260       C         20.81092200      9.27417100     11.28642300   
   261       C          9.27417100     11.28642300     20.81092200   
   262       C          8.77592200      2.76082900     12.78357700   
   263       C          3.25907800     21.30917100      0.74857700   
   264       C          8.77832900     21.31157800      6.76607700   
   265       B         16.88029100     15.47701000     21.48728900   
   266       B          2.58271100      4.84529100     20.62799000   
   267       B          3.43478900     14.61049000     10.86279100   
   268       B         21.48728900     16.88029100     15.47701000   
   269       B         20.62799000      2.58271100      4.84529100   
   270       B          2.57549000      1.17220900     20.63521100   
   271       B         15.47701000     21.48728900     16.88029100   
   272       B          4.84529100     20.62799000      2.58271100   
   273       B         14.61049000     10.86279100      3.43478900   
   274       B          7.18970900      3.44201000     14.61771100   
   275       B         21.49451000     13.20720900     15.46978900   
   276       B         20.63521100      2.57549000      1.17220900   
   277       B         13.20720900     15.46978900     21.49451000   
   278       B         15.46978900     21.49451000     13.20720900   
   279       B          9.45951000     22.89779100      8.60021100   
   280       B         19.22470900      8.59299000      9.45228900   
   281       B          8.59299000      9.45228900     19.22470900   
   282       B         14.61771100      7.18970900      3.44201000   
   283       B          3.44201000     14.61771100      7.18970900   
   284       B         22.89779100      8.60021100      9.45951000   
   285       B          8.60021100      9.45951000     22.89779100   
   286       B         10.86279100      3.43478900     14.61049000   
   287       B          1.17220900     20.63521100      2.57549000   
   288       B          9.45228900     19.22470900      8.59299000   
   289       H         13.45031600     21.59801100     17.55184400   
   290       H          6.51815600      1.41531600     14.50698900   
   291       H         23.56934400      8.48948900      7.43281600   
   292       H         17.55184400     13.45031600     21.59801100   
   293       H         14.50698900      6.51815600      1.41531600   
   294       H         20.52448900      4.60218400      0.50065600   
   295       H         21.59801100     17.55184400     13.45031600   
   296       H          1.41531600     14.50698900      6.51815600   
   297       H          8.48948900      7.43281600     23.56934400   
   298       H         10.61968400      9.56301100     18.55315600   
   299       H          3.54551100     16.63718400     11.53434400   
   300       H          0.50065600     20.52448900      4.60218400   
   301       H         16.63718400     11.53434400      3.54551100   
   302       H         11.53434400      3.54551100     16.63718400   
   303       H         15.58051100     19.46781600     12.53565600   
   304       H         22.65468400      2.47198900      5.51684400   
   305       H          2.47198900      5.51684400     22.65468400   
   306       H         18.55315600     10.61968400      9.56301100   
   307       H          9.56301100     18.55315600     10.61968400   
   308       H         19.46781600     12.53565600     15.58051100   
   309       H         12.53565600     15.58051100     19.46781600   
   310       H          7.43281600     23.56934400      8.48948900   
   311       H          4.60218400      0.50065600     20.52448900   
   312       H          5.51684400     22.65468400      2.47198900   
   313       H         13.74878400     20.12733400     19.49910700   
   314       H          4.57089300      1.71378400     15.97766600   
   315       H          1.44660700      9.96016600      7.73128400   
   316       H         19.49910700     13.74878400     20.12733400   
   317       H         15.97766600      4.57089300      1.71378400   
   318       H         21.99516600      4.30371600     22.62339300   
   319       H         20.12733400     19.49910700     13.74878400   
   320       H          1.71378400     15.97766600      4.57089300   
   321       H          9.96016600      7.73128400      1.44660700   
   322       H         10.32121600      8.09233400     16.60589300   
   323       H          2.07483400     16.33871600     13.48160700   
   324       H         22.62339300     21.99516600      4.30371600   
   325       H         16.33871600     13.48160700      2.07483400   
   326       H         13.48160700      2.07483400     16.33871600   
   327       H         14.10983400     19.76628400     10.58839300   
   328       H         22.35621600      3.94266600      7.46410700   
   329       H          3.94266600      7.46410700     22.35621600   
   330       H         16.60589300     10.32121600      8.09233400   
   331       H          8.09233400     16.60589300     10.32121600   
   332       H         19.76628400     10.58839300     14.10983400   
   333       H         10.58839300     14.10983400     19.76628400   
   334       H          7.73128400      1.44660700      9.96016600   
   335       H          4.30371600     22.62339300     21.99516600   
   336       H          7.46410700     22.35621600      3.94266600   
   337       H         14.00392600     17.89845200     20.33674300   
   338       H          3.73325700      1.96892600     18.20654800   
   339       H          2.28424300     12.18904800      7.98642600   
   340       H         20.33674300     14.00392600     17.89845200   
   341       H         18.20654800      3.73325700      1.96892600   
   342       H          0.15404800      4.04857400     21.78575700   
   343       H         17.89845200     20.33674300     14.00392600   
   344       H          1.96892600     18.20654800      3.73325700   
   345       H         12.18904800      7.98642600      2.28424300   
   346       H         10.06607400      5.86345200     15.76825700   
   347       H         23.91595200     16.08357400     14.31924300   
   348       H         21.78575700      0.15404800      4.04857400   
   349       H         16.08357400     14.31924300     23.91595200   
   350       H         14.31924300     23.91595200     16.08357400   
   351       H         11.88095200     20.02142600      9.75075700   
   352       H         22.10107400      6.17154800      8.30174300   
   353       H          6.17154800      8.30174300     22.10107400   
   354       H         15.76825700     10.06607400      5.86345200   
   355       H          5.86345200     15.76825700     10.06607400   
   356       H         20.02142600      9.75075700     11.88095200   
   357       H          9.75075700     11.88095200     20.02142600   
   358       H          7.98642600      2.28424300     12.18904800   
   359       H          4.04857400     21.78575700      0.15404800   
   360       H          8.30174300     22.10107400      6.17154800   
   361      Tv         24.07000000      0.00000000      0.00000000   
   362      Tv          0.00000000     24.07000000      0.00000000   
   363      Tv          0.00000000      0.00000000     24.07000000   


                   THE SYSTEM IS A SOLID


                UNIT CELL TRANSLATION VECTORS

              X                Y              Z
    T1 =    24.0700000      0.0000000      0.0000000
    T2 =     0.0000000     24.0700000      0.0000000
    T3 =     0.0000000      0.0000000     24.0700000


          CARTESIAN COORDINATES 

    NO.       ATOM           X           Y           Z

     1         C         17.7661     14.4613     21.2297
     2         C          2.8403      5.7311     21.6437
     3         C          3.1772     15.6262     11.7486
     4         C         21.2297     17.7661     14.4613
     5         C         21.6437      2.8403      5.7311
     6         C          3.5912      0.2864     20.8928
     7         C         14.4613     21.2297     17.7661
     8         C          5.7311     21.6437      2.8403
     9         C         15.6262     11.7486      3.1772
    10         C          6.3039      2.4263     14.8753
    11         C         20.4788     12.3214     15.2122
    12         C         20.8928      3.5912      0.2864
    13         C         12.3214     15.2122     20.4788
    14         C         15.2122     20.4788     12.3214
    15         C          8.4438     23.7836      8.8578
    16         C         18.3389      9.6087      9.1947
    17         C          9.6087      9.1947     18.3389
    18         C         14.8753      6.3039      2.4263
    19         C          2.4263     14.8753      6.3039
    20         C         23.7836      8.8578      8.4438
    21         C          8.8578      8.4438     23.7836
    22         C         11.7486      3.1772     15.6262
    23         C          0.2864     20.8928      3.5912
    24         C          9.1947     18.3389      9.6087
    25         C         18.9407     14.6370     20.4210
    26         C          3.6490      6.9057     21.4680
    27         C          2.3685     15.4505     12.9232
    28         C         20.4210     18.9407     14.6370
    29         C         21.4680      3.6490      6.9057
    30         C          3.4155     23.1818     21.7015
    31         C         14.6370     20.4210     18.9407
    32         C          6.9057     21.4680      3.6490
    33         C         15.4505     12.9232      2.3685
    34         C          5.1293      2.6020     15.6840
    35         C         20.6545     11.1468     14.4035
    36         C         21.7015      3.4155     23.1818
    37         C         11.1468     14.4035     20.6545
    38         C         14.4035     20.6545     11.1468
    39         C          8.6195      0.8882      9.6665
    40         C         17.1643      9.4330      8.3860
    41         C          9.4330      8.3860     17.1643
    42         C         15.6840      5.1293      2.6020
    43         C          2.6020     15.6840      5.1293
    44         C          0.8882      9.6665      8.6195
    45         C          9.6665      8.6195      0.8882
    46         C         12.9232      2.3685     15.4505
    47         C         23.1818     21.7015      3.4155
    48         C          8.3860     17.1643      9.4330
    49         C         15.5588     15.3831     22.1420
    50         C          1.9280      3.5238     20.7219
    51         C          4.0895     14.7044      9.5413
    52         C         22.1420     15.5588     15.3831
    53         C         20.7219      1.9280      3.5238
    54         C          2.6694      2.4937     19.9805
    55         C         15.3831     22.1420     15.5588
    56         C          3.5238     20.7219      1.9280
    57         C         14.7044      9.5413      4.0895
    58         C          8.5112      3.3481     13.9630
    59         C         21.4006     14.5287     16.1245
    60         C         19.9805      2.6694      2.4937
    61         C         14.5287     16.1245     21.4006
    62         C         16.1245     21.4006     14.5287
    63         C          9.3656     21.5763      7.9455
    64         C         20.5462      8.6869     10.1070
    65         C          8.6869     10.1070     20.5462
    66         C         13.9630      8.5112      3.3481
    67         C          3.3481     13.9630      8.5112
    68         C         21.5763      7.9455      9.3656
    69         C          7.9455      9.3656     21.5763
    70         C          9.5413      4.0895     14.7044
    71         C          2.4937     19.9805      2.6694
    72         C         10.1070     20.5462      8.6869
    73         C         19.2175     19.9805     17.9851
    74         C          6.0849      7.1825     16.1245
    75         C         24.0026     10.1070     13.2000
    76         C         17.9851     19.2175     19.9805
    77         C         16.1245      6.0849      7.1825
    78         C         22.1420     22.9050      0.0674
    79         C         19.9805     17.9851     19.2175
    80         C          7.1825     16.1245      6.0849
    81         C         10.1070     13.2000     24.0026
    82         C          4.8525      7.9455     18.1199
    83         C          1.9280     10.8700     11.9676
    84         C          0.0674     22.1420     22.9050
    85         C         10.8700     11.9676      1.9280
    86         C         11.9676      1.9280     10.8700
    87         C         13.9630      1.1650     12.1024
    88         C         16.8875      4.0895      5.9501
    89         C          4.0895      5.9501     16.8875
    90         C         18.1199      4.8525      7.9455
    91         C          7.9455     18.1199      4.8525
    92         C          1.1650     12.1024     13.9630
    93         C         12.1024     13.9630      1.1650
    94         C         13.2000     24.0026     10.1070
    95         C         22.9050      0.0674     22.1420
    96         C          5.9501     16.8875      4.0895
    97         C         18.4569     16.9453     20.5630
    98         C          3.5070      6.4219     19.1597
    99         C          2.5105     13.1422     12.4394
   100         C         20.5630     18.4569     16.9453
   101         C         19.1597      3.5070      6.4219
   102         C          1.1072     23.6656     21.5595
   103         C         16.9453     20.5630     18.4569
   104         C          6.4219     19.1597      3.5070
   105         C         13.1422     12.4394      2.5105
   106         C          5.6131      4.9103     15.5420
   107         C         22.9628     11.6306     14.5455
   108         C         21.5595      1.1072     23.6656
   109         C         11.6306     14.5455     22.9628
   110         C         14.5455     22.9628     11.6306
   111         C         10.9278      0.4044      9.5245
   112         C         17.6481      7.1247      8.5280
   113         C          7.1247      8.5280     17.6481
   114         C         15.5420      5.6131      4.9103
   115         C          4.9103     15.5420      5.6131
   116         C          0.4044      9.5245     10.9278
   117         C          9.5245     10.9278      0.4044
   118         C         12.4394      2.5105     13.1422
   119         C         23.6656     21.5595      1.1072
   120         C          8.5280     17.6481      7.1247
   121         C         16.5481     19.0201     20.1899
   122         C          3.8801      4.5131     17.0849
   123         C          2.1374     11.0674     10.5306
   124         C         20.1899     16.5481     19.0201
   125         C         17.0849      3.8801      4.5131
   126         C         23.1024      1.5044     21.9326
   127         C         19.0201     20.1899     16.5481
   128         C          4.5131     17.0849      3.8801
   129         C         11.0674     10.5306      2.1374
   130         C          7.5219      6.9851     15.9151
   131         C          0.9676     13.5394     14.1724
   132         C         21.9326     23.1024      1.5044
   133         C         13.5394     14.1724      0.9676
   134         C         14.1724      0.9676     13.5394
   135         C         13.0026     22.5656      9.8976
   136         C         19.5569      5.0499      8.1549
   137         C          5.0499      8.1549     19.5569
   138         C         15.9151      7.5219      6.9851
   139         C          6.9851     15.9151      7.5219
   140         C         22.5656      9.8976     13.0026
   141         C          9.8976     13.0026     22.5656
   142         C         10.5306      2.1374     11.0674
   143         C          1.5044     21.9326     23.1024
   144         C          8.1549     19.5569      5.0499
   145         C         23.2251     21.9904     23.9087
   146         C          0.1613     11.1901     14.1146
   147         C          5.8562      8.0971     17.2076
   148         C         23.9087     23.2251     21.9904
   149         C         14.1146      0.1613     11.1901
   150         C         20.1321     18.8974     18.2138
   151         C         21.9904     23.9087     23.2251
   152         C         11.1901     14.1146      0.1613
   153         C          8.0971     17.2076      5.8562
   154         C          0.8449      9.9554     12.1963
   155         C          3.9379      6.8624     17.8912
   156         C         18.2138     20.1321     18.8974
   157         C          6.8624     17.8912      3.9379
   158         C         17.8912      3.9379      6.8624
   159         C         15.9729      5.1726      6.1788
   160         C         12.8799      2.0796     11.8737
   161         C          2.0796     11.8737     12.8799
   162         C         12.1963      0.8449      9.9554
   163         C          9.9554     12.1963      0.8449
   164         C          5.1726      6.1788     15.9729
   165         C          6.1788     15.9729      5.1726
   166         C         17.2076      5.8562      8.0971
   167         C         18.8974     18.2138     20.1321
   168         C         11.8737     12.8799      2.0796
   169         C         17.1667     16.7912     21.0083
   170         C          3.0617      5.1317     19.3138
   171         C          2.9558     13.2963     11.1492
   172         C         21.0083     17.1667     16.7912
   173         C         19.3138      3.0617      5.1317
   174         C          1.2613      0.8858     21.1142
   175         C         16.7912     21.0083     17.1667
   176         C          5.1317     19.3138      3.0617
   177         C         13.2963     11.1492      2.9558
   178         C          6.9033      4.7562     15.0967
   179         C         22.8087     12.9208     14.9908
   180         C         21.1142      1.2613      0.8858
   181         C         12.9208     14.9908     22.8087
   182         C         14.9908     22.8087     12.9208
   183         C         10.7737     23.1842      9.0792
   184         C         18.9383      7.2788      8.9733
   185         C          7.2788      8.9733     18.9383
   186         C         15.0967      6.9033      4.7562
   187         C          4.7562     15.0967      6.9033
   188         C         23.1842      9.0792     10.7737
   189         C          9.0792     10.7737     23.1842
   190         C         11.1492      2.9558     13.2963
   191         C          0.8858     21.1142      1.2613
   192         C          8.9733     18.9383      7.2788
   193         C         16.1630     17.8142     20.7291
   194         C          3.3409      4.1280     18.2908
   195         C          2.6766     12.2733     10.1455
   196         C         20.7291     16.1630     17.8142
   197         C         18.2908      3.3409      4.1280
   198         C          0.2383      1.8895     21.3934
   199         C         17.8142     20.7291     16.1630
   200         C          4.1280     18.2908      3.3409
   201         C         12.2733     10.1455      2.6766
   202         C          7.9070      5.7792     15.3759
   203         C         23.8317     13.9245     14.7116
   204         C         21.3934      0.2383      1.8895
   205         C         13.9245     14.7116     23.8317
   206         C         14.7116     23.8317     13.9245
   207         C         11.7967     22.1805      9.3584
   208         C         19.9420      6.2558      8.6941
   209         C          6.2558      8.6941     19.9420
   210         C         15.3759      7.9070      5.7792
   211         C          5.7792     15.3759      7.9070
   212         C         22.1805      9.3584     11.7967
   213         C          9.3584     11.7967     22.1805
   214         C         10.1455      2.6766     12.2733
   215         C          1.8895     21.3934      0.2383
   216         C          8.6941     19.9420      6.2558
   217         C         19.2993     15.8910     20.0335
   218         C          4.0365      7.2643     20.2140
   219         C          1.9810     14.1965     13.2818
   220         C         20.0335     19.2993     15.8910
   221         C         20.2140      4.0365      7.2643
   222         C          2.1615     22.8232     22.0890
   223         C         15.8910     20.0335     19.2993
   224         C          7.2643     20.2140      4.0365
   225         C         14.1965     13.2818      1.9810
   226         C          4.7707      3.8560     16.0715
   227         C         21.9085     10.7882     14.0160
   228         C         22.0890      2.1615     22.8232
   229         C         10.7882     14.0160     21.9085
   230         C         14.0160     21.9085     10.7882
   231         C          9.8735      1.2468     10.0540
   232         C         16.8057      8.1790      7.9985
   233         C          8.1790      7.9985     16.8057
   234         C         16.0715      4.7707      3.8560
   235         C          3.8560     16.0715      4.7707
   236         C          1.2468     10.0540      9.8735
   237         C         10.0540      9.8735      1.2468
   238         C         13.2818      1.9810     14.1965
   239         C         22.8232     22.0890      2.1615
   240         C          7.9985     16.8057      8.1790
   241         C         14.7934     17.3039     20.8133
   242         C          3.2567      2.7584     18.8011
   243         C          2.7608     12.7836      8.7759
   244         C         20.8133     14.7934     17.3039
   245         C         18.8011      3.2567      2.7584
   246         C          0.7486      3.2591     21.3092
   247         C         17.3039     20.8133     14.7934
   248         C          2.7584     18.8011      3.2567
   249         C         12.7836      8.7759      2.7608
   250         C          9.2766      5.2689     15.2917
   251         C         23.3214     15.2941     14.7958
   252         C         21.3092      0.7486      3.2591
   253         C         15.2941     14.7958     23.3214
   254         C         14.7958     23.3214     15.2941
   255         C         11.2864     20.8109      9.2742
   256         C         21.3116      6.7661      8.7783
   257         C          6.7661      8.7783     21.3116
   258         C         15.2917      9.2766      5.2689
   259         C          5.2689     15.2917      9.2766
   260         C         20.8109      9.2742     11.2864
   261         C          9.2742     11.2864     20.8109
   262         C          8.7759      2.7608     12.7836
   263         C          3.2591     21.3092      0.7486
   264         C          8.7783     21.3116      6.7661
   265         B         16.8803     15.4770     21.4873
   266         B          2.5827      4.8453     20.6280
   267         B          3.4348     14.6105     10.8628
   268         B         21.4873     16.8803     15.4770
   269         B         20.6280      2.5827      4.8453
   270         B          2.5755      1.1722     20.6352
   271         B         15.4770     21.4873     16.8803
   272         B          4.8453     20.6280      2.5827
   273         B         14.6105     10.8628      3.4348
   274         B          7.1897      3.4420     14.6177
   275         B         21.4945     13.2072     15.4698
   276         B         20.6352      2.5755      1.1722
   277         B         13.2072     15.4698     21.4945
   278         B         15.4698     21.4945     13.2072
   279         B          9.4595     22.8978      8.6002
   280         B         19.2247      8.5930      9.4523
   281         B          8.5930      9.4523     19.2247
   282         B         14.6177      7.1897      3.4420
   283         B          3.4420     14.6177      7.1897
   284         B         22.8978      8.6002      9.4595
   285         B          8.6002      9.4595     22.8978
   286         B         10.8628      3.4348     14.6105
   287         B          1.1722     20.6352      2.5755
   288         B          9.4523     19.2247      8.5930
   289         H         13.4503     21.5980     17.5518
   290         H          6.5182      1.4153     14.5070
   291         H         23.5693      8.4895      7.4328
   292         H         17.5518     13.4503     21.5980
   293         H         14.5070      6.5182      1.4153
   294         H         20.5245      4.6022      0.5007
   295         H         21.5980     17.5518     13.4503
   296         H          1.4153     14.5070      6.5182
   297         H          8.4895      7.4328     23.5693
   298         H         10.6197      9.5630     18.5532
   299         H          3.5455     16.6372     11.5343
   300         H          0.5007     20.5245      4.6022
   301         H         16.6372     11.5343      3.5455
   302         H         11.5343      3.5455     16.6372
   303         H         15.5805     19.4678     12.5357
   304         H         22.6547      2.4720      5.5168
   305         H          2.4720      5.5168     22.6547
   306         H         18.5532     10.6197      9.5630
   307         H          9.5630     18.5532     10.6197
   308         H         19.4678     12.5357     15.5805
   309         H         12.5357     15.5805     19.4678
   310         H          7.4328     23.5693      8.4895
   311         H          4.6022      0.5007     20.5245
   312         H          5.5168     22.6547      2.4720
   313         H         13.7488     20.1273     19.4991
   314         H          4.5709      1.7138     15.9777
   315         H          1.4466      9.9602      7.7313
   316         H         19.4991     13.7488     20.1273
   317         H         15.9777      4.5709      1.7138
   318         H         21.9952      4.3037     22.6234
   319         H         20.1273     19.4991     13.7488
   320         H          1.7138     15.9777      4.5709
   321         H          9.9602      7.7313      1.4466
   322         H         10.3212      8.0923     16.6059
   323         H          2.0748     16.3387     13.4816
   324         H         22.6234     21.9952      4.3037
   325         H         16.3387     13.4816      2.0748
   326         H         13.4816      2.0748     16.3387
   327         H         14.1098     19.7663     10.5884
   328         H         22.3562      3.9427      7.4641
   329         H          3.9427      7.4641     22.3562
   330         H         16.6059     10.3212      8.0923
   331         H          8.0923     16.6059     10.3212
   332         H         19.7663     10.5884     14.1098
   333         H         10.5884     14.1098     19.7663
   334         H          7.7313      1.4466      9.9602
   335         H          4.3037     22.6234     21.9952
   336         H          7.4641     22.3562      3.9427
   337         H         14.0039     17.8985     20.3367
   338         H          3.7333      1.9689     18.2065
   339         H          2.2842     12.1890      7.9864
   340         H         20.3367     14.0039     17.8985
   341         H         18.2065      3.7333      1.9689
   342         H          0.1540      4.0486     21.7858
   343         H         17.8985     20.3367     14.0039
   344         H          1.9689     18.2065      3.7333
   345         H         12.1890      7.9864      2.2842
   346         H         10.0661      5.8635     15.7683
   347         H         23.9160     16.0836     14.3192
   348         H         21.7858      0.1540      4.0486
   349         H         16.0836     14.3192     23.9160
   350         H         14.3192     23.9160     16.0836
   351         H         11.8810     20.0214      9.7508
   352         H         22.1011      6.1715      8.3017
   353         H          6.1715      8.3017     22.1011
   354         H         15.7683     10.0661      5.8635
   355         H          5.8635     15.7683     10.0661
   356         H         20.0214      9.7508     11.8810
   357         H          9.7508     11.8810     20.0214
   358         H          7.9864      2.2842     12.1890
   359         H          4.0486     21.7858      0.1540
   360         H          8.3017     22.1011      6.1715

 General Reference for PM7:
 "Optimization of Parameters for Semiempirical Methods VI: More Modifications to the 
 NDDO Approximations and Re-optimization of Parameters", J. J. P. Stewart, J. Mol. Mod., 1:32, 19 (2013)
 https://link.springer.com/article/10.1007/s00894-012-1667-x

           Empirical Formula: C264 H72 B24  =   360 atoms



      RHF CALCULATION, NO. OF DOUBLY OCCUPIED LEVELS = 600


 -------------------------------------------------------------------------------
 PM7 CHARGE=0 NOOPT




     NO PARAMETERS MARKED FOR OPTIMIZATION, SO 1SCF WAS USED  
     SCF FIELD WAS ACHIEVED                                   


                              PM7 CALCULATION
                                                       MOPAC v22.1.0 Linux
                                                       Wed Jan 31 09:27:46 2024




          FINAL HEAT OF FORMATION =       3245.20169 KCAL/MOL =   13577.92386 KJ/MOL
          H.o.F. per unit cell    =        135.21674 KCAL, for 24 unit cells, unit cell = C11 H3 B1



          IONIZATION POTENTIAL    =          8.361128 EV
          HOMO LUMO ENERGIES (EV) =         -8.361 -4.985
          NO. OF FILLED LEVELS    =        600
          MOLECULAR WEIGHT        =       3502.9128

                   THE SYSTEM IS A SOLID


                UNIT CELL TRANSLATION VECTORS

              X                Y              Z
    T1 =    24.0700000      0.0000000      0.0000000
    T2 =     0.0000000     24.0700000      0.0000000
    T3 =     0.0000000      0.0000000     24.0700000

          VOLUME OF UNIT CELL     =      13945.313 CUBIC ANGSTROMS

          DENSITY                 =          0.417 GRAMS/CC
                              A   =         24.070 ANGSTROMS
                              B   =         24.070 ANGSTROMS
                              C   =         24.070 ANGSTROMS
                            ALPHA =         90.000 DEGREES
                            BETA  =         90.000 DEGREES
                            GAMMA =         90.000 DEGREES



          SCF CALCULATIONS        =          1

          WALL-CLOCK TIME         =          1 MINUTE AND 53.195 SECONDS
          COMPUTATION TIME        =          1 MINUTE AND 53.193 SECONDS




   ATOM   CHEMICAL          X               Y               Z
  NUMBER   SYMBOL      (ANGSTROMS)     (ANGSTROMS)     (ANGSTROMS)

     1       C         17.76606700     14.46125600     21.22974000   
     2       C          2.84026000      5.73106700     21.64374400   
     3       C          3.17724000     15.62624400     11.74856700   
     4       C         21.22974000     17.76606700     14.46125600   
     5       C         21.64374400      2.84026000      5.73106700   
     6       C          3.59124400      0.28643300     20.89276000   
     7       C         14.46125600     21.22974000     17.76606700   
     8       C          5.73106700     21.64374400      2.84026000   
     9       C         15.62624400     11.74856700      3.17724000   
    10       C          6.30393300      2.42625600     14.87526000   
    11       C         20.47875600     12.32143300     15.21224000   
    12       C         20.89276000      3.59124400      0.28643300   
    13       C         12.32143300     15.21224000     20.47875600   
    14       C         15.21224000     20.47875600     12.32143300   
    15       C          8.44375600     23.78356700      8.85776000   
    16       C         18.33893300      9.60874400      9.19474000   
    17       C          9.60874400      9.19474000     18.33893300   
    18       C         14.87526000      6.30393300      2.42625600   
    19       C          2.42625600     14.87526000      6.30393300   
    20       C         23.78356700      8.85776000      8.44375600   
    21       C          8.85776000      8.44375600     23.78356700   
    22       C         11.74856700      3.17724000     15.62624400   
    23       C          0.28643300     20.89276000      3.59124400   
    24       C          9.19474000     18.33893300      9.60874400   
    25       C         18.94068300     14.63696700     20.42098800   
    26       C          3.64901200      6.90568300     21.46803300   
    27       C          2.36848800     15.45053300     12.92318300   
    28       C         20.42098800     18.94068300     14.63696700   
    29       C         21.46803300      3.64901200      6.90568300   
    30       C          3.41553300     23.18181700     21.70151200   
    31       C         14.63696700     20.42098800     18.94068300   
    32       C          6.90568300     21.46803300      3.64901200   
    33       C         15.45053300     12.92318300      2.36848800   
    34       C          5.12931700      2.60196700     15.68401200   
    35       C         20.65446700     11.14681700     14.40348800   
    36       C         21.70151200      3.41553300     23.18181700   
    37       C         11.14681700     14.40348800     20.65446700   
    38       C         14.40348800     20.65446700     11.14681700   
    39       C          8.61946700      0.88818300      9.66651200   
    40       C         17.16431700      9.43303300      8.38598800   
    41       C          9.43303300      8.38598800     17.16431700   
    42       C         15.68401200      5.12931700      2.60196700   
    43       C          2.60196700     15.68401200      5.12931700   
    44       C          0.88818300      9.66651200      8.61946700   
    45       C          9.66651200      8.61946700      0.88818300   
    46       C         12.92318300      2.36848800     15.45053300   
    47       C         23.18181700     21.70151200      3.41553300   
    48       C          8.38598800     17.16431700      9.43303300   
    49       C         15.55884800     15.38313700     22.14199300   
    50       C          1.92800700      3.52384800     20.72186300   
    51       C          4.08949300     14.70436300      9.54134800   
    52       C         22.14199300     15.55884800     15.38313700   
    53       C         20.72186300      1.92800700      3.52384800   
    54       C          2.66936300      2.49365200     19.98050700   
    55       C         15.38313700     22.14199300     15.55884800   
    56       C          3.52384800     20.72186300      1.92800700   
    57       C         14.70436300      9.54134800      4.08949300   
    58       C          8.51115200      3.34813700     13.96300700   
    59       C         21.40063700     14.52865200     16.12449300   
    60       C         19.98050700      2.66936300      2.49365200   
    61       C         14.52865200     16.12449300     21.40063700   
    62       C         16.12449300     21.40063700     14.52865200   
    63       C          9.36563700     21.57634800      7.94550700   
    64       C         20.54615200      8.68686300     10.10699300   
    65       C          8.68686300     10.10699300     20.54615200   
    66       C         13.96300700      8.51115200      3.34813700   
    67       C          3.34813700     13.96300700      8.51115200   
    68       C         21.57634800      7.94550700      9.36563700   
    69       C          7.94550700      9.36563700     21.57634800   
    70       C          9.54134800      4.08949300     14.70436300   
    71       C          2.49365200     19.98050700      2.66936300   
    72       C         10.10699300     20.54615200      8.68686300   
    73       C         19.21748800     19.98050700     17.98510400   
    74       C          6.08489600      7.18248800     16.12449300   
    75       C         24.00260400     10.10699300     13.19998800   
    76       C         17.98510400     19.21748800     19.98050700   
    77       C         16.12449300      6.08489600      7.18248800   
    78       C         22.14199300     22.90501200      0.06739600   
    79       C         19.98050700     17.98510400     19.21748800   
    80       C          7.18248800     16.12449300      6.08489600   
    81       C         10.10699300     13.19998800     24.00260400   
    82       C          4.85251200      7.94550700     18.11989600   
    83       C          1.92800700     10.87001200     11.96760400   
    84       C          0.06739600     22.14199300     22.90501200   
    85       C         10.87001200     11.96760400      1.92800700   
    86       C         11.96760400      1.92800700     10.87001200   
    87       C         13.96300700      1.16498800     12.10239600   
    88       C         16.88751200      4.08949300      5.95010400   
    89       C          4.08949300      5.95010400     16.88751200   
    90       C         18.11989600      4.85251200      7.94550700   
    91       C          7.94550700     18.11989600      4.85251200   
    92       C          1.16498800     12.10239600     13.96300700   
    93       C         12.10239600     13.96300700      1.16498800   
    94       C         13.19998800     24.00260400     10.10699300   
    95       C         22.90501200      0.06739600     22.14199300   
    96       C          5.95010400     16.88751200      4.08949300   
    97       C         18.45687600     16.94528000     20.56300100   
    98       C          3.50699900      6.42187600     19.15972000   
    99       C          2.51050100     13.14222000     12.43937600   
   100       C         20.56300100     18.45687600     16.94528000   
   101       C         19.15972000      3.50699900      6.42187600   
   102       C          1.10722000     23.66562400     21.55949900   
   103       C         16.94528000     20.56300100     18.45687600   
   104       C          6.42187600     19.15972000      3.50699900   
   105       C         13.14222000     12.43937600      2.51050100   
   106       C          5.61312400      4.91028000     15.54199900   
   107       C         22.96278000     11.63062400     14.54550100   
   108       C         21.55949900      1.10722000     23.66562400   
   109       C         11.63062400     14.54550100     22.96278000   
   110       C         14.54550100     22.96278000     11.63062400   
   111       C         10.92778000      0.40437600      9.52449900   
   112       C         17.64812400      7.12472000      8.52800100   
   113       C          7.12472000      8.52800100     17.64812400   
   114       C         15.54199900      5.61312400      4.91028000   
   115       C          4.91028000     15.54199900      5.61312400   
   116       C          0.40437600      9.52449900     10.92778000   
   117       C          9.52449900     10.92778000      0.40437600   
   118       C         12.43937600      2.51050100     13.14222000   
   119       C         23.66562400     21.55949900      1.10722000   
   120       C          8.52800100     17.64812400      7.12472000   
   121       C         16.54812500     19.02011400     20.18991600   
   122       C          3.88008400      4.51312500     17.08488600   
   123       C          2.13741600     11.06738600     10.53062500   
   124       C         20.18991600     16.54812500     19.02011400   
   125       C         17.08488600      3.88008400      4.51312500   
   126       C         23.10238600      1.50437500     21.93258400   
   127       C         19.02011400     20.18991600     16.54812500   
   128       C          4.51312500     17.08488600      3.88008400   
   129       C         11.06738600     10.53062500      2.13741600   
   130       C          7.52187500      6.98511400     15.91508400   
   131       C          0.96761400     13.53937500     14.17241600   
   132       C         21.93258400     23.10238600      1.50437500   
   133       C         13.53937500     14.17241600      0.96761400   
   134       C         14.17241600      0.96761400     13.53937500   
   135       C         13.00261400     22.56562500      9.89758400   
   136       C         19.55687500      5.04988600      8.15491600   
   137       C          5.04988600      8.15491600     19.55687500   
   138       C         15.91508400      7.52187500      6.98511400   
   139       C          6.98511400     15.91508400      7.52187500   
   140       C         22.56562500      9.89758400     13.00261400   
   141       C          9.89758400     13.00261400     22.56562500   
   142       C         10.53062500      2.13741600     11.06738600   
   143       C          1.50437500     21.93258400     23.10238600   
   144       C          8.15491600     19.55687500      5.04988600   
   145       C         23.22514300     21.99035200     23.90873100   
   146       C          0.16126900     11.19014300     14.11464800   
   147       C          5.85623100      8.09714800     17.20764300   
   148       C         23.90873100     23.22514300     21.99035200   
   149       C         14.11464800      0.16126900     11.19014300   
   150       C         20.13214800     18.89735700     18.21376900   
   151       C         21.99035200     23.90873100     23.22514300   
   152       C         11.19014300     14.11464800      0.16126900   
   153       C          8.09714800     17.20764300      5.85623100   
   154       C          0.84485700      9.95535200     12.19626900   
   155       C          3.93785200      6.86235700     17.89123100   
   156       C         18.21376900     20.13214800     18.89735700   
   157       C          6.86235700     17.89123100      3.93785200   
   158       C         17.89123100      3.93785200      6.86235700   
   159       C         15.97285200      5.17264300      6.17876900   
   160       C         12.87985700      2.07964800     11.87373100   
   161       C          2.07964800     11.87373100     12.87985700   
   162       C         12.19626900      0.84485700      9.95535200   
   163       C          9.95535200     12.19626900      0.84485700   
   164       C          5.17264300      6.17876900     15.97285200   
   165       C          6.17876900     15.97285200      5.17264300   
   166       C         17.20764300      5.85623100      8.09714800   
   167       C         18.89735700     18.21376900     20.13214800   
   168       C         11.87373100     12.87985700      2.07964800   
   169       C         17.16672400     16.79123200     21.00829600   
   170       C          3.06170400      5.13172400     19.31376800   
   171       C          2.95579600     13.29626800     11.14922400   
   172       C         21.00829600     17.16672400     16.79123200   
   173       C         19.31376800      3.06170400      5.13172400   
   174       C          1.26126800      0.88577600     21.11420400   
   175       C         16.79123200     21.00829600     17.16672400   
   176       C          5.13172400     19.31376800      3.06170400   
   177       C         13.29626800     11.14922400      2.95579600   
   178       C          6.90327600      4.75623200     15.09670400   
   179       C         22.80873200     12.92077600     14.99079600   
   180       C         21.11420400      1.26126800      0.88577600   
   181       C         12.92077600     14.99079600     22.80873200   
   182       C         14.99079600     22.80873200     12.92077600   
   183       C         10.77373200     23.18422400      9.07920400   
   184       C         18.93827600      7.27876800      8.97329600   
   185       C          7.27876800      8.97329600     18.93827600   
   186       C         15.09670400      6.90327600      4.75623200   
   187       C          4.75623200     15.09670400      6.90327600   
   188       C         23.18422400      9.07920400     10.77373200   
   189       C          9.07920400     10.77373200     23.18422400   
   190       C         11.14922400      2.95579600     13.29626800   
   191       C          0.88577600     21.11420400      1.26126800   
   192       C          8.97329600     18.93827600      7.27876800   
   193       C         16.16300500     17.81420700     20.72908400   
   194       C          3.34091600      4.12800500     18.29079300   
   195       C          2.67658400     12.27329300     10.14550500   
   196       C         20.72908400     16.16300500     17.81420700   
   197       C         18.29079300      3.34091600      4.12800500   
   198       C          0.23829300      1.88949500     21.39341600   
   199       C         17.81420700     20.72908400     16.16300500   
   200       C          4.12800500     18.29079300      3.34091600   
   201       C         12.27329300     10.14550500      2.67658400   
   202       C          7.90699500      5.77920700     15.37591600   
   203       C         23.83170700     13.92449500     14.71158400   
   204       C         21.39341600      0.23829300      1.88949500   
   205       C         13.92449500     14.71158400     23.83170700   
   206       C         14.71158400     23.83170700     13.92449500   
   207       C         11.79670700     22.18050500      9.35841600   
   208       C         19.94199500      6.25579300      8.69408400   
   209       C          6.25579300      8.69408400     19.94199500   
   210       C         15.37591600      7.90699500      5.77920700   
   211       C          5.77920700     15.37591600      7.90699500   
   212       C         22.18050500      9.35841600     11.79670700   
   213       C          9.35841600     11.79670700     22.18050500   
   214       C         10.14550500      2.67658400     12.27329300   
   215       C          1.88949500     21.39341600      0.23829300   
   216       C          8.69408400     19.94199500      6.25579300   
   217       C         19.29932600     15.89101400     20.03346100   
   218       C          4.03653900      7.26432600     20.21398600   
   219       C          1.98096100     14.19648600     13.28182600   
   220       C         20.03346100     19.29932600     15.89101400   
   221       C         20.21398600      4.03653900      7.26432600   
   222       C          2.16148600     22.82317400     22.08903900   
   223       C         15.89101400     20.03346100     19.29932600   
   224       C          7.26432600     20.21398600      4.03653900   
   225       C         14.19648600     13.28182600      1.98096100   
   226       C          4.77067400      3.85601400     16.07153900   
   227       C         21.90851400     10.78817400     14.01596100   
   228       C         22.08903900      2.16148600     22.82317400   
   229       C         10.78817400     14.01596100     21.90851400   
   230       C         14.01596100     21.90851400     10.78817400   
   231       C          9.87351400      1.24682600     10.05403900   
   232       C         16.80567400      8.17898600      7.99846100   
   233       C          8.17898600      7.99846100     16.80567400   
   234       C         16.07153900      4.77067400      3.85601400   
   235       C          3.85601400     16.07153900      4.77067400   
   236       C          1.24682600     10.05403900      9.87351400   
   237       C         10.05403900      9.87351400      1.24682600   
   238       C         13.28182600      1.98096100     14.19648600   
   239       C         22.82317400     22.08903900      2.16148600   
   240       C          7.99846100     16.80567400      8.17898600   
   241       C         14.79342200     17.30392300     20.81332900   
   242       C          3.25667100      2.75842200     18.80107700   
   243       C          2.76082900     12.78357700      8.77592200   
   244       C         20.81332900     14.79342200     17.30392300   
   245       C         18.80107700      3.25667100      2.75842200   
   246       C          0.74857700      3.25907800     21.30917100   
   247       C         17.30392300     20.81332900     14.79342200   
   248       C          2.75842200     18.80107700      3.25667100   
   249       C         12.78357700      8.77592200      2.76082900   
   250       C          9.27657800      5.26892300     15.29167100   
   251       C         23.32142300     15.29407800     14.79582900   
   252       C         21.30917100      0.74857700      3.25907800   
   253       C         15.29407800     14.79582900     23.32142300   
   254       C         14.79582900     23.32142300     15.29407800   
   255       C         11.28642300     20.81092200      9.27417100   
   256       C         21.31157800      6.76607700      8.77832900   
   257       C          6.76607700      8.77832900     21.31157800   
   258       C         15.29167100      9.27657800      5.26892300   
   259       C          5.26892300     15.29167100      9.27657800   
   260       C         20.81092200      9.27417100     11.28642300   
   261       C          9.27417100     11.28642300     20.81092200   
   262       C          8.77592200      2.76082900     12.78357700   
   263       C          3.25907800     21.30917100      0.74857700   
   264       C          8.77832900     21.31157800      6.76607700   
   265       B         16.88029100     15.47701000     21.48728900   
   266       B          2.58271100      4.84529100     20.62799000   
   267       B          3.43478900     14.61049000     10.86279100   
   268       B         21.48728900     16.88029100     15.47701000   
   269       B         20.62799000      2.58271100      4.84529100   
   270       B          2.57549000      1.17220900     20.63521100   
   271       B         15.47701000     21.48728900     16.88029100   
   272       B          4.84529100     20.62799000      2.58271100   
   273       B         14.61049000     10.86279100      3.43478900   
   274       B          7.18970900      3.44201000     14.61771100   
   275       B         21.49451000     13.20720900     15.46978900   
   276       B         20.63521100      2.57549000      1.17220900   
   277       B         13.20720900     15.46978900     21.49451000   
   278       B         15.46978900     21.49451000     13.20720900   
   279       B          9.45951000     22.89779100      8.60021100   
   280       B         19.22470900      8.59299000      9.45228900   
   281       B          8.59299000      9.45228900     19.22470900   
   282       B         14.61771100      7.18970900      3.44201000   
   283       B          3.44201000     14.61771100      7.18970900   
   284       B         22.89779100      8.60021100      9.45951000   
   285       B          8.60021100      9.45951000     22.89779100   
   286       B         10.86279100      3.43478900     14.61049000   
   287       B          1.17220900     20.63521100      2.57549000   
   288       B          9.45228900     19.22470900      8.59299000   
   289       H         13.45031600     21.59801100     17.55184400   
   290       H          6.51815600      1.41531600     14.50698900   
   291       H         23.56934400      8.48948900      7.43281600   
   292       H         17.55184400     13.45031600     21.59801100   
   293       H         14.50698900      6.51815600      1.41531600   
   294       H         20.52448900      4.60218400      0.50065600   
   295       H         21.59801100     17.55184400     13.45031600   
   296       H          1.41531600     14.50698900      6.51815600   
   297       H          8.48948900      7.43281600     23.56934400   
   298       H         10.61968400      9.56301100     18.55315600   
   299       H          3.54551100     16.63718400     11.53434400   
   300       H          0.50065600     20.52448900      4.60218400   
   301       H         16.63718400     11.53434400      3.54551100   
   302       H         11.53434400      3.54551100     16.63718400   
   303       H         15.58051100     19.46781600     12.53565600   
   304       H         22.65468400      2.47198900      5.51684400   
   305       H          2.47198900      5.51684400     22.65468400   
   306       H         18.55315600     10.61968400      9.56301100   
   307       H          9.56301100     18.55315600     10.61968400   
   308       H         19.46781600     12.53565600     15.58051100   
   309       H         12.53565600     15.58051100     19.46781600   
   310       H          7.43281600     23.56934400      8.48948900   
   311       H          4.60218400      0.50065600     20.52448900   
   312       H          5.51684400     22.65468400      2.47198900   
   313       H         13.74878400     20.12733400     19.49910700   
   314       H          4.57089300      1.71378400     15.97766600   
   315       H          1.44660700      9.96016600      7.73128400   
   316       H         19.49910700     13.74878400     20.12733400   
   317       H         15.97766600      4.57089300      1.71378400   
   318       H         21.99516600      4.30371600     22.62339300   
   319       H         20.12733400     19.49910700     13.74878400   
   320       H          1.71378400     15.97766600      4.57089300   
   321       H          9.96016600      7.73128400      1.44660700   
   322       H         10.32121600      8.09233400     16.60589300   
   323       H          2.07483400     16.33871600     13.48160700   
   324       H         22.62339300     21.99516600      4.30371600   
   325       H         16.33871600     13.48160700      2.07483400   
   326       H         13.48160700      2.07483400     16.33871600   
   327       H         14.10983400     19.76628400     10.58839300   
   328       H         22.35621600      3.94266600      7.46410700   
   329       H          3.94266600      7.46410700     22.35621600   
   330       H         16.60589300     10.32121600      8.09233400   
   331       H          8.09233400     16.60589300     10.32121600   
   332       H         19.76628400     10.58839300     14.10983400   
   333       H         10.58839300     14.10983400     19.76628400   
   334       H          7.73128400      1.44660700      9.96016600   
   335       H          4.30371600     22.62339300     21.99516600   
   336       H          7.46410700     22.35621600      3.94266600   
   337       H         14.00392600     17.89845200     20.33674300   
   338       H          3.73325700      1.96892600     18.20654800   
   339       H          2.28424300     12.18904800      7.98642600   
   340       H         20.33674300     14.00392600     17.89845200   
   341       H         18.20654800      3.73325700      1.96892600   
   342       H          0.15404800      4.04857400     21.78575700   
   343       H         17.89845200     20.33674300     14.00392600   
   344       H          1.96892600     18.20654800      3.73325700   
   345       H         12.18904800      7.98642600      2.28424300   
   346       H         10.06607400      5.86345200     15.76825700   
   347       H         23.91595200     16.08357400     14.31924300   
   348       H         21.78575700      0.15404800      4.04857400   
   349       H         16.08357400     14.31924300     23.91595200   
   350       H         14.31924300     23.91595200     16.08357400   
   351       H         11.88095200     20.02142600      9.75075700   
   352       H         22.10107400      6.17154800      8.30174300   
   353       H          6.17154800      8.30174300     22.10107400   
   354       H         15.76825700     10.06607400      5.86345200   
   355       H          5.86345200     15.76825700     10.06607400   
   356       H         20.02142600      9.75075700     11.88095200   
   357       H          9.75075700     11.88095200     20.02142600   
   358       H          7.98642600      2.28424300     12.18904800   
   359       H          4.04857400     21.78575700      0.15404800   
   360       H          8.30174300     22.10107400      6.17154800   
   361      Tv         24.07000000      0.00000000      0.00000000   
   362      Tv          0.00000000     24.07000000      0.00000000   
   363      Tv          0.00000000      0.00000000     24.07000000   

                             CARTESIAN COORDINATES

   1    C       17.766067000    14.461256000    21.229740000
   2    C        2.840260000     5.731067000    21.643744000
   3    C        3.177240000    15.626244000    11.748567000
   4    C       21.229740000    17.766067000    14.461256000
   5    C       21.643744000     2.840260000     5.731067000
   6    C        3.591244000     0.286433000    20.892760000
   7    C       14.461256000    21.229740000    17.766067000
   8    C        5.731067000    21.643744000     2.840260000
   9    C       15.626244000    11.748567000     3.177240000
  10    C        6.303933000     2.426256000    14.875260000
  11    C       20.478756000    12.321433000    15.212240000
  12    C       20.892760000     3.591244000     0.286433000
  13    C       12.321433000    15.212240000    20.478756000
  14    C       15.212240000    20.478756000    12.321433000
  15    C        8.443756000    23.783567000     8.857760000
  16    C       18.338933000     9.608744000     9.194740000
  17    C        9.608744000     9.194740000    18.338933000
  18    C       14.875260000     6.303933000     2.426256000
  19    C        2.426256000    14.875260000     6.303933000
  20    C       23.783567000     8.857760000     8.443756000
  21    C        8.857760000     8.443756000    23.783567000
  22    C       11.748567000     3.177240000    15.626244000
  23    C        0.286433000    20.892760000     3.591244000
  24    C        9.194740000    18.338933000     9.608744000
  25    C       18.940683000    14.636967000    20.420988000
  26    C        3.649012000     6.905683000    21.468033000
  27    C        2.368488000    15.450533000    12.923183000
  28    C       20.420988000    18.940683000    14.636967000
  29    C       21.468033000     3.649012000     6.905683000
  30    C        3.415533000    23.181817000    21.701512000
  31    C       14.636967000    20.420988000    18.940683000
  32    C        6.905683000    21.468033000     3.649012000
  33    C       15.450533000    12.923183000     2.368488000
  34    C        5.129317000     2.601967000    15.684012000
  35    C       20.654467000    11.146817000    14.403488000
  36    C       21.701512000     3.415533000    23.181817000
  37    C       11.146817000    14.403488000    20.654467000
  38    C       14.403488000    20.654467000    11.146817000
  39    C        8.619467000     0.888183000     9.666512000
  40    C       17.164317000     9.433033000     8.385988000
  41    C        9.433033000     8.385988000    17.164317000
  42    C       15.684012000     5.129317000     2.601967000
  43    C        2.601967000    15.684012000     5.129317000
  44    C        0.888183000     9.666512000     8.619467000
  45    C        9.666512000     8.619467000     0.888183000
  46    C       12.923183000     2.368488000    15.450533000
  47    C       23.181817000    21.701512000     3.415533000
  48    C        8.385988000    17.164317000     9.433033000
  49    C       15.558848000    15.383137000    22.141993000
  50    C        1.928007000     3.523848000    20.721863000
  51    C        4.089493000    14.704363000     9.541348000
  52    C       22.141993000    15.558848000    15.383137000
  53    C       20.721863000     1.928007000     3.523848000
  54    C        2.669363000     2.493652000    19.980507000
  55    C       15.383137000    22.141993000    15.558848000
  56    C        3.523848000    20.721863000     1.928007000
  57    C       14.704363000     9.541348000     4.089493000
  58    C        8.511152000     3.348137000    13.963007000
  59    C       21.400637000    14.528652000    16.124493000
  60    C       19.980507000     2.669363000     2.493652000
  61    C       14.528652000    16.124493000    21.400637000
  62    C       16.124493000    21.400637000    14.528652000
  63    C        9.365637000    21.576348000     7.945507000
  64    C       20.546152000     8.686863000    10.106993000
  65    C        8.686863000    10.106993000    20.546152000
  66    C       13.963007000     8.511152000     3.348137000
  67    C        3.348137000    13.963007000     8.511152000
  68    C       21.576348000     7.945507000     9.365637000
  69    C        7.945507000     9.365637000    21.576348000
  70    C        9.541348000     4.089493000    14.704363000
  71    C        2.493652000    19.980507000     2.669363000
  72    C       10.106993000    20.546152000     8.686863000
  73    C       19.217488000    19.980507000    17.985104000
[...]
  293          H           0.132219        0.8678     0.86778
  294          H           0.127806        0.8722     0.87219
  295          H           0.127675        0.8723     0.87232
  296          H           0.132386        0.8676     0.86761
  297          H           0.150414        0.8496     0.84959
  298          H           0.150374        0.8496     0.84963
  299          H           0.132132        0.8679     0.86787
  300          H           0.127760        0.8722     0.87224
  301          H           0.132265        0.8677     0.86774
  302          H           0.132364        0.8676     0.86764
  303          H           0.128337        0.8717     0.87166
  304          H           0.128184        0.8718     0.87182
  305          H           0.128203        0.8718     0.87180
  306          H           0.150409        0.8496     0.84959
  307          H           0.150410        0.8496     0.84959
  308          H           0.128177        0.8718     0.87182
  309          H           0.128213        0.8718     0.87179
  310          H           0.150401        0.8496     0.84960
  311          H           0.127660        0.8723     0.87234
  312          H           0.128341        0.8717     0.87166
  313          H           0.151131        0.8489     0.84887
  314          H           0.149304        0.8507     0.85070
  315          H           0.179034        0.8210     0.82097
  316          H           0.151157        0.8488     0.84884
  317          H           0.149398        0.8506     0.85060
  318          H           0.151199        0.8488     0.84880
  319          H           0.151325        0.8487     0.84868
  320          H           0.149396        0.8506     0.85060
  321          H           0.178906        0.8211     0.82109
  322          H           0.179033        0.8210     0.82097
  323          H           0.149310        0.8507     0.85069
  324          H           0.151099        0.8489     0.84890
  325          H           0.149413        0.8506     0.85059
  326          H           0.149375        0.8506     0.85063
  327          H           0.150026        0.8500     0.84997
  328          H           0.150034        0.8500     0.84997
  329          H           0.149792        0.8502     0.85021
  330          H           0.178927        0.8211     0.82107
  331          H           0.178926        0.8211     0.82107
  332          H           0.149796        0.8502     0.85020
  333          H           0.150094        0.8499     0.84991
  334          H           0.178945        0.8211     0.82105
  335          H           0.151313        0.8487     0.84869
  336          H           0.150091        0.8499     0.84991
  337          H           0.166912        0.8331     0.83309
  338          H           0.168548        0.8315     0.83145
  339          H           0.170186        0.8298     0.82981
  340          H           0.167019        0.8330     0.83298
  341          H           0.168601        0.8314     0.83140
  342          H           0.167002        0.8330     0.83300
  343          H           0.166850        0.8332     0.83315
  344          H           0.168791        0.8312     0.83121
  345          H           0.170314        0.8297     0.82969
  346          H           0.170204        0.8298     0.82980
  347          H           0.168520        0.8315     0.83148
  348          H           0.166949        0.8331     0.83305
  349          H           0.168653        0.8313     0.83135
  350          H           0.168768        0.8312     0.83123
  351          H           0.166033        0.8340     0.83397
  352          H           0.165981        0.8340     0.83402
  353          H           0.166046        0.8340     0.83395
  354          H           0.170276        0.8297     0.82972
  355          H           0.170390        0.8296     0.82961
  356          H           0.166038        0.8340     0.83396
  357          H           0.165978        0.8340     0.83402
  358          H           0.170368        0.8296     0.82963
  359          H           0.166830        0.8332     0.83317
  360          H           0.166021        0.8340     0.83398


          ATOMIC ORBITAL ELECTRON POPULATIONS

     Atom    s        px        py        pz   
    1  C   1.12289   0.92606   1.12296   0.86763
    2  C   1.12681   0.84460   0.91580   1.12258
    3  C   1.10816   0.93827   1.12450   0.95748
    4  C   1.12334   0.86517   0.92519   1.12277
    5  C   1.12713   1.12251   0.84298   0.91528
    6  C   1.12336   1.12277   0.92516   0.86509
    7  C   1.12303   1.12295   0.86700   0.92585
    8  C   1.12700   0.91549   1.12252   0.84347
    9  C   1.10803   1.12452   0.95775   0.93889
   10  C   1.10814   0.95752   1.12452   0.93838
   11  C   1.12685   1.12257   0.91573   0.84443
   12  C   1.12296   0.86721   1.12292   0.92591
   13  C   1.12716   0.91522   0.84277   1.12250
   14  C   1.12692   0.84386   1.12253   0.91561
   15  C   1.12309   1.13214   0.94945   0.86624
   16  C   1.12315   0.94936   1.13213   0.86591
   17  C   1.12332   1.13208   0.86503   0.94910
   18  C   1.10807   0.93867   0.95766   1.12449
   19  C   1.10794   1.12465   0.93944   0.95795
   20  C   1.12334   0.94908   0.86494   1.13208
   21  C   1.12310   0.86617   1.13215   0.94943
   22  C   1.10796   0.95791   0.93934   1.12465
   23  C   1.12294   0.92602   0.86750   1.12299
   24  C   1.12305   0.86642   0.94950   1.13215
   25  C   1.08803   1.01398   1.03165   1.00434
   26  C   1.08514   1.02975   1.02855   1.03367
   27  C   1.09351   0.95505   1.02292   0.98649
   28  C   1.08775   1.00668   1.01517   1.03202
   29  C   1.08498   1.03396   1.03115   1.02931
   30  C   1.08774   1.03203   1.01521   1.00676
   31  C   1.08795   1.03175   1.00497   1.01433
   32  C   1.08502   1.02915   1.03391   1.03093
   33  C   1.09354   1.02290   0.98639   0.95477
   34  C   1.09352   0.98645   1.02289   0.95496
   35  C   1.08513   1.03369   1.02862   1.02986
   36  C   1.08798   1.00474   1.03171   1.01418
   37  C   1.08496   1.02943   1.03137   1.03400
   38  C   1.08506   1.03060   1.03384   1.02898
   39  C   1.09260   1.05149   1.03230   1.00979
   40  C   1.09255   1.03247   1.05151   1.01007
   41  C   1.09252   1.05173   1.01067   1.03279
   42  C   1.09352   0.95490   0.98645   1.02293
   43  C   1.09359   1.02277   0.95430   0.98619
   44  C   1.09251   1.03283   1.01074   1.05174
   45  C   1.09257   1.00988   1.05146   1.03236
   46  C   1.09358   0.98621   0.95435   1.02277
   47  C   1.08800   1.01408   1.00449   1.03167
   48  C   1.09260   1.00966   1.03223   1.05145
   49  C   1.10775   1.06909   0.84389   0.92390
   50  C   1.10602   0.92667   1.06887   0.86033
   51  C   1.11389   0.91836   0.77807   1.04529
   52  C   1.10776   0.92387   1.06942   0.84490
   53  C   1.10619   0.86032   0.92633   1.06899
   54  C   1.10786   0.84432   1.06944   0.92362
   55  C   1.10825   0.84128   0.92272   1.06924
   56  C   1.10555   1.06892   0.86379   0.92783
   57  C   1.11365   0.77939   1.04540   0.91902
   58  C   1.11386   1.04526   0.77833   0.91845
   59  C   1.10614   0.85976   1.06889   0.92640
   60  C   1.10766   0.92411   0.84460   1.06914
   61  C   1.10607   1.06900   0.92660   0.86109
   62  C   1.10555   0.92782   0.86359   1.06889
   63  C   1.08120   0.96487   1.03168   0.98599
   64  C   1.08112   1.03157   0.96526   0.98619
   65  C   1.08120   0.96513   0.98602   1.03167
   66  C   1.11373   0.91883   1.04541   0.77893
   67  C   1.11350   0.78050   0.91940   1.04527
   68  C   1.08119   1.03165   0.98606   0.96523
   69  C   1.08112   0.98618   0.96520   1.03157
   70  C   1.11354   1.04524   0.91929   0.78029
   71  C   1.10824   1.06917   0.92276   0.84115
   72  C   1.08119   0.98603   1.03166   0.96490
   73  C   1.06039   1.03888   1.07889   0.97850
   74  C   1.05940   0.96228   1.00960   1.03261
   75  C   1.06933   0.96970   1.01519   1.00788
   76  C   1.06035   0.97842   1.03921   1.07921
   77  C   1.05944   1.03253   0.96228   1.00960
   78  C   1.06034   1.07940   1.03931   0.97845
   79  C   1.06032   1.07981   0.97860   1.03943
   80  C   1.05950   1.00952   1.03238   0.96239
   81  C   1.06936   1.01463   1.00757   0.96962
   82  C   1.06931   1.00795   1.01537   0.96975
   83  C   1.05940   1.03261   1.00961   0.96225
   84  C   1.06040   0.97846   1.07879   1.03885
   85  C   1.05946   1.00958   0.96231   1.03249
   86  C   1.05949   0.96239   1.03242   1.00953
   87  C   1.06211   1.06425   1.02631   0.97975
   88  C   1.06222   1.02555   1.06317   0.97972
   89  C   1.06215   1.06366   0.97971   1.02587
   90  C   1.06936   0.96960   1.00757   1.01460
   91  C   1.06927   1.01543   0.96984   1.00790
   92  C   1.06217   1.02572   0.97970   1.06345
   93  C   1.06221   0.97973   1.06330   1.02566
   94  C   1.06926   1.00798   0.96987   1.01559
   95  C   1.06032   1.03935   0.97862   1.07972
   96  C   1.06212   0.97976   1.02628   1.06419
   97  C   1.05654   1.02021   0.96330   1.08416
   98  C   1.05614   1.09255   1.02481   0.96065
   99  C   1.06723   0.98692   0.95699   0.99121
  100  C   1.05650   1.08523   1.02055   0.96350
  101  C   1.05615   0.96080   1.09275   1.02491
  102  C   1.05650   0.96350   1.02053   1.08514
  103  C   1.05656   0.96333   1.08389   1.02015
  104  C   1.05613   1.02503   0.96083   1.09335
  105  C   1.06725   0.95695   0.99117   0.98686
  106  C   1.06722   0.99124   0.95697   0.98695
  107  C   1.05614   0.96065   1.02479   1.09247
  108  C   1.05653   1.08445   0.96334   1.02030
  109  C   1.05615   1.02496   1.09293   0.96083
  110  C   1.05612   1.09326   0.96079   1.02500
  111  C   1.06453   0.98896   1.02033   1.05848
  112  C   1.06464   1.02015   0.98896   1.05740
  113  C   1.06449   0.98916   1.05903   1.02042
  114  C   1.06725   0.98687   0.99115   0.95697
  115  C   1.06722   0.95686   0.98686   0.99130
  116  C   1.06451   1.02039   1.05883   0.98916
  117  C   1.06466   1.05724   0.98891   1.02013
  118  C   1.06721   0.99131   0.98690   0.95687
  119  C   1.05657   1.02009   1.08369   0.96329
  120  C   1.06456   1.05811   1.02027   0.98892
  121  C   1.10194   0.96751   0.92086   0.84514
  122  C   1.10149   0.84289   0.96061   0.92185
  123  C   1.07183   1.06662   1.00352   0.98167
  124  C   1.10209   0.84433   0.96735   0.92065
  125  C   1.10137   0.92220   0.84380   0.96050
  126  C   1.10202   0.92080   0.96732   0.84479
  127  C   1.10162   0.92153   0.84718   0.96736
  128  C   1.10181   0.96066   0.92158   0.84139
  129  C   1.07212   1.00311   0.98160   1.06488
  130  C   1.07182   0.98164   1.00353   1.06667
  131  C   1.10141   0.92197   0.96058   0.84333
  132  C   1.10204   0.84457   0.92069   0.96750
  133  C   1.10144   0.96052   0.84344   0.92212
  134  C   1.10181   0.84131   0.92153   0.96068
  135  C   1.09224   0.95281   0.96955   0.91296
  136  C   1.09215   0.96972   0.95301   0.91366
  137  C   1.09239   0.95242   0.91190   0.96960
  138  C   1.07208   1.06515   0.98164   1.00317
  139  C   1.07206   1.00321   1.06521   0.98147
  140  C   1.09237   0.96963   0.91203   0.95246
  141  C   1.09211   0.91396   0.95312   0.96971
  142  C   1.07200   0.98147   1.06554   1.00329
  143  C   1.10160   0.96739   0.84729   0.92155
  144  C   1.09218   0.91339   0.96957   0.95295
  145  C   1.07190   0.93845   0.87022   0.97243
  146  C   1.07036   0.98081   0.94292   0.89149
  147  C   1.06129   0.96880   0.95150   0.97243
  148  C   1.07212   0.97223   0.93816   0.86875
  149  C   1.07059   0.89002   0.98053   0.94257
  150  C   1.07216   0.86852   0.93809   0.97221
  151  C   1.07212   0.86881   0.97226   0.93807
  152  C   1.07037   0.94304   0.89153   0.98077
  153  C   1.06130   0.95166   0.97242   0.96895
  154  C   1.06127   0.97250   0.95168   0.96881
  155  C   1.07041   0.89117   0.94282   0.98076
  156  C   1.07191   0.97241   0.87013   0.93845
  157  C   1.07059   0.94261   0.98053   0.89007
  158  C   1.07033   0.98082   0.89180   0.94310
  159  C   1.06888   0.92767   0.95917   0.97894
  160  C   1.06884   0.95896   0.92762   0.97899
  161  C   1.06887   0.92763   0.97893   0.95915
  162  C   1.06132   0.96890   0.97236   0.95147
  163  C   1.06119   0.95248   0.96903   0.97272
  164  C   1.06886   0.95910   0.97894   0.92760
  165  C   1.06884   0.97900   0.92765   0.95897
  166  C   1.06119   0.97273   0.96900   0.95247
  167  C   1.07207   0.93814   0.97230   0.86913
  168  C   1.06888   0.97896   0.95914   0.92767
  169  C   1.08424   0.94332   1.00896   0.89331
  170  C   1.08506   0.89198   0.94000   1.01308
  171  C   1.07901   0.98597   1.03809   0.96068
  172  C   1.08428   0.89301   0.94320   1.00913
  173  C   1.08504   1.01336   0.89216   0.94004
  174  C   1.08428   1.00914   0.94322   0.89294
  175  C   1.08427   1.00907   0.89297   0.94338
  176  C   1.08496   0.94004   1.01347   0.89287
  177  C   1.07889   1.03819   0.96071   0.98687
  178  C   1.07902   0.96067   1.03811   0.98591
  179  C   1.08507   1.01308   0.94000   0.89188
  180  C   1.08424   0.89332   1.00898   0.94328
  181  C   1.08502   0.94005   0.89234   1.01343
  182  C   1.08497   0.89280   1.01340   0.94003
  183  C   1.08389   1.02915   0.96109   0.90717
  184  C   1.08380   0.96114   1.02923   0.90787
  185  C   1.08385   1.02912   0.90721   0.96112
  186  C   1.07890   0.98675   0.96070   1.03815
  187  C   1.07894   1.03829   0.98659   0.96070
  188  C   1.08383   0.96113   0.90734   1.02913
  189  C   1.08381   0.90788   1.02925   0.96114
  190  C   1.07896   0.96069   0.98641   1.03827
  191  C   1.08426   0.94340   0.89303   1.00904
  192  C   1.08388   0.90731   0.96109   1.02918
  193  C   1.07361   1.00342   0.97461   1.04192
  194  C   1.07457   1.03155   1.00608   0.97011
  195  C   1.10356   0.75541   0.91090   0.99959
  196  C   1.07368   1.04123   1.00358   0.97439
  197  C   1.07458   0.96982   1.03080   1.00601
  198  C   1.07364   0.97437   1.00354   1.04133
  199  C   1.07346   0.97449   1.04226   1.00325
  200  C   1.07484   1.00627   0.96969   1.02937
  201  C   1.10362   0.91079   0.99975   0.75526
  202  C   1.10356   0.99959   0.91092   0.75540
  203  C   1.07453   0.97012   1.00603   1.03173
  204  C   1.07365   1.04169   0.97458   1.00349
  205  C   1.07464   1.00606   1.03036   0.96975
  206  C   1.07483   1.02962   0.96976   1.00627
  207  C   1.07051   0.96470   0.98617   1.01279
  208  C   1.07048   0.98601   0.96475   1.01282
  209  C   1.07045   0.96487   1.01340   0.98610
  210  C   1.10362   0.75529   0.99972   0.91079
  211  C   1.10358   0.91085   0.75525   0.99973
  212  C   1.07045   0.98607   1.01340   0.96488
  213  C   1.07050   1.01264   0.96470   0.98603
  214  C   1.10357   0.99970   0.75527   0.91088
  215  C   1.07345   1.00322   1.04240   0.97454
  216  C   1.07052   1.01262   0.98615   0.96466
  217  C   1.07162   0.97129   0.99072   0.97290
  218  C   1.07357   0.94933   0.95175   0.98976
  219  C   1.06386   1.02349   0.99425   1.01000
  220  C   1.07205   0.97047   0.96950   0.99042
  221  C   1.07394   0.98959   0.94757   0.95036
  222  C   1.07207   0.99041   0.96944   0.97040
  223  C   1.07177   0.99067   0.97228   0.97078
  224  C   1.07391   0.95045   0.98959   0.94766
  225  C   1.06386   0.99428   1.00993   1.02350
  226  C   1.06384   1.01006   0.99430   1.02363
  227  C   1.07360   0.98976   0.95166   0.94922
  228  C   1.07169   0.97248   0.99067   0.97098
  229  C   1.07400   0.95011   0.94725   0.98956
  230  C   1.07382   0.94810   0.98963   0.95079
  231  C   1.10298   0.97105   0.85128   0.85058
  232  C   1.10302   0.85120   0.97109   0.85065
  233  C   1.10325   0.97089   0.84931   0.85029
  234  C   1.06388   1.02337   1.00988   0.99424
  235  C   1.06377   0.99448   1.02416   1.01025
  236  C   1.10327   0.85026   0.84929   0.97089
  237  C   1.10295   0.85095   0.97113   0.85143
  238  C   1.06377   1.01027   1.02417   0.99449
  239  C   1.07168   0.97114   0.97277   0.99073
  240  C   1.10292   0.85088   0.85148   0.97110
  241  C   1.11655   1.00408   1.01380   0.83350
  242  C   1.11230   0.86500   1.00147   1.02047
  243  C   1.08273   1.09949   1.07711   1.01285
  244  C   1.11620   0.83601   1.00397   1.01427
  245  C   1.11189   1.02096   0.86737   1.00138
  246  C   1.11616   1.01431   1.00393   0.83602
  247  C   1.11630   1.01405   0.83394   1.00389
  248  C   1.11192   1.00159   1.02105   0.86866
  249  C   1.08271   1.07724   1.01283   1.10016
  250  C   1.08271   1.01286   1.07712   1.09966
  251  C   1.11227   1.02048   1.00143   0.86492
  252  C   1.11652   0.83400   1.01386   1.00410
  253  C   1.11182   1.00141   0.86807   1.02106
  254  C   1.11201   0.86804   1.02093   1.00160
  255  C   1.09763   1.02151   1.01135   0.93700
  256  C   1.09776   1.01143   1.02133   0.93618
  257  C   1.09765   1.02135   0.93680   1.01138
  258  C   1.08272   1.09990   1.01282   1.07720
  259  C   1.08265   1.07730   1.10091   1.01287
  260  C   1.09767   1.01139   0.93665   1.02132
  261  C   1.09775   0.93626   1.02138   1.01142
  262  C   1.08265   1.01288   1.10081   1.07728
  263  C   1.11638   1.00392   0.83342   1.01395
  264  C   1.09765   0.93693   1.01136   1.02152
  265  B   0.58689   0.92387   0.94683   0.91643
  266  B   0.58641   0.92041   0.92555   0.94118
  267  B   0.60108   0.83688   0.95012   0.91970
  268  B   0.58673   0.91737   0.92395   0.94658
  269  B   0.58650   0.94097   0.92032   0.92496
  270  B   0.58669   0.94659   0.92386   0.91764
  271  B   0.58674   0.94685   0.91771   0.92342
  272  B   0.58696   0.92526   0.94083   0.91734
  273  B   0.60162   0.95004   0.91940   0.83404
  274  B   0.60115   0.91964   0.95009   0.83654
  275  B   0.58634   0.94119   0.92547   0.92088
  276  B   0.58689   0.91638   0.94677   0.92397
  277  B   0.58661   0.92492   0.91968   0.94090
  278  B   0.58692   0.91750   0.94089   0.92537
  279  B   0.66300   0.92371   0.82522   0.56236
  280  B   0.66303   0.82510   0.92366   0.56236
  281  B   0.66305   0.92368   0.56219   0.82496
  282  B   0.60146   0.83485   0.91951   0.95008
  283  B   0.60194   0.94989   0.83247   0.91910
  284  B   0.66306   0.82493   0.56219   0.92367
  285  B   0.66302   0.56241   0.92366   0.82516
  286  B   0.60186   0.91915   0.83293   0.94990
  287  B   0.58677   0.92342   0.91750   0.94690
  288  B   0.66299   0.56241   0.82526   0.92370
  289  H   0.87227
  290  H   0.86784
  291  H   0.84962
  292  H   0.87218
  293  H   0.86778
  294  H   0.87219
  295  H   0.87232
  296  H   0.86761
  297  H   0.84959
  298  H   0.84963
  299  H   0.86787
  300  H   0.87224
  301  H   0.86774
  302  H   0.86764
  303  H   0.87166
  304  H   0.87182
  305  H   0.87180
  306  H   0.84959
  307  H   0.84959
  308  H   0.87182
  309  H   0.87179
  310  H   0.84960
  311  H   0.87234
  312  H   0.87166
  313  H   0.84887
  314  H   0.85070
  315  H   0.82097
  316  H   0.84884
  317  H   0.85060
  318  H   0.84880
  319  H   0.84868
  320  H   0.85060
  321  H   0.82109
  322  H   0.82097
  323  H   0.85069
  324  H   0.84890
  325  H   0.85059
  326  H   0.85063
  327  H   0.84997
  328  H   0.84997
  329  H   0.85021
  330  H   0.82107
  331  H   0.82107
  332  H   0.85020
  333  H   0.84991
  334  H   0.82105
  335  H   0.84869
  336  H   0.84991
  337  H   0.83309
  338  H   0.83145
  339  H   0.82981
  340  H   0.83298
  341  H   0.83140
  342  H   0.83300
  343  H   0.83315
  344  H   0.83121
  345  H   0.82969
  346  H   0.82980
  347  H   0.83148
  348  H   0.83305
  349  H   0.83135
  350  H   0.83123
  351  H   0.83397
  352  H   0.83402
  353  H   0.83395
  354  H   0.82972
  355  H   0.82961
  356  H   0.83396
  357  H   0.83402
  358  H   0.82963
  359  H   0.83317
  360  H   0.83398

 **********************
 *                    *
 * JOB ENDED NORMALLY *
 *                    *
 **********************



 TOTAL JOB TIME:           113.23 SECONDS

 == MOPAC DONE ==
