 *******************************************************************************
 **                                                                           **
 **                              MOPAC v22.1.0                                **
 **                                                                           **
 *******************************************************************************
 **          Digital Object Identifier (DOI): 10.5281/zenodo.6511958          **
 **    Visit the DOI location for information on how to cite this program.    **
 *******************************************************************************

                              PM7 CALCULATION RESULTS

 *******************************************************************************
 *  CALCULATION DONE:                                Thu Feb  1 16:03:37 2024  *
 *  PM7        - The PM7 Hamiltonian to be used
 *  NOOPT      - DO NOT OPTIMIZE ANY COORDINATES
 *
 *
 *
 *                 CHARGE ON SYSTEM = 0
 *
 *
 *
 *  T=         - A TIME OF 172800.0 SECONDS REQUESTED
 *  DUMP=N     - RESTART FILE WRITTEN EVERY 7200.0 SECONDS REQUESTED
 *******************************************************************************
PM7 CHARGE=0 NOOPT


   ATOM   CHEMICAL          X               Y               Z
  NUMBER   SYMBOL      (ANGSTROMS)     (ANGSTROMS)     (ANGSTROMS)

     1       N         19.21748800     19.98050700     17.98510400   
     2       N         13.96300700      1.16498800     12.10239600   
     3       N          6.08489600      7.18248800     16.12449300   
     4       N         16.12449300      6.08489600      7.18248800   
     5       N         17.98510400     19.21748800     19.98050700   
     6       N         19.98050700     17.98510400     19.21748800   
     7       N          7.18248800     16.12449300      6.08489600   
     8       N          1.92800700     10.87001200     11.96760400   
     9       N         22.90501200      0.06739600     22.14199300   
    10       N         22.14199300     22.90501200      0.06739600   
    11       N          0.06739600     22.14199300     22.90501200   
    12       N         10.87001200     11.96760400      1.92800700   
    13       N         11.96760400      1.92800700     10.87001200   
    14       N          4.08949300      5.95010400     16.88751200   
    15       N          4.85251200      7.94550700     18.11989600   
    16       N         16.88751200      4.08949300      5.95010400   
    17       N         18.11989600      4.85251200      7.94550700   
    18       N          5.95010400     16.88751200      4.08949300   
    19       N          7.94550700     18.11989600      4.85251200   
    20       N          1.16498800     12.10239600     13.96300700   
    21       N         24.00260400     10.10699300     13.19998800   
    22       N         10.10699300     13.19998800     24.00260400   
    23       N         12.10239600     13.96300700      1.16498800   
    24       N         13.19998800     24.00260400     10.10699300   
    25       C         17.76606700     14.46125600     21.22974000   
    26       C          8.44375600     23.78356700      8.85776000   
    27       C          2.84026000      5.73106700     21.64374400   
    28       C         21.64374400      2.84026000      5.73106700   
    29       C         21.22974000     17.76606700     14.46125600   
    30       C         14.46125600     21.22974000     17.76606700   
    31       C          5.73106700     21.64374400      2.84026000   
    32       C         20.47875600     12.32143300     15.21224000   
    33       C          0.28643300     20.89276000      3.59124400   
    34       C          3.59124400      0.28643300     20.89276000   
    35       C         20.89276000      3.59124400      0.28643300   
    36       C         12.32143300     15.21224000     20.47875600   
    37       C         15.21224000     20.47875600     12.32143300   
    38       C          9.60874400      9.19474000     18.33893300   
    39       C          6.30393300      2.42625600     14.87526000   
    40       C         18.33893300      9.60874400      9.19474000   
    41       C         14.87526000      6.30393300      2.42625600   
    42       C          9.19474000     18.33893300      9.60874400   
    43       C          2.42625600     14.87526000      6.30393300   
    44       C         23.78356700      8.85776000      8.44375600   
    45       C          3.17724000     15.62624400     11.74856700   
    46       C         15.62624400     11.74856700      3.17724000   
    47       C          8.85776000      8.44375600     23.78356700   
    48       C         11.74856700      3.17724000     15.62624400   
    49       C         18.94068300     14.63696700     20.42098800   
    50       C          8.61946700      0.88818300      9.66651200   
    51       C          3.64901200      6.90568300     21.46803300   
    52       C         21.46803300      3.64901200      6.90568300   
    53       C         20.42098800     18.94068300     14.63696700   
    54       C         14.63696700     20.42098800     18.94068300   
    55       C          6.90568300     21.46803300      3.64901200   
    56       C         20.65446700     11.14681700     14.40348800   
    57       C         23.18181700     21.70151200      3.41553300   
    58       C          3.41553300     23.18181700     21.70151200   
    59       C         21.70151200      3.41553300     23.18181700   
    60       C         11.14681700     14.40348800     20.65446700   
    61       C         14.40348800     20.65446700     11.14681700   
    62       C          9.43303300      8.38598800     17.16431700   
    63       C          5.12931700      2.60196700     15.68401200   
    64       C         17.16431700      9.43303300      8.38598800   
    65       C         15.68401200      5.12931700      2.60196700   
    66       C          8.38598800     17.16431700      9.43303300   
    67       C          2.60196700     15.68401200      5.12931700   
    68       C          0.88818300      9.66651200      8.61946700   
    69       C          2.36848800     15.45053300     12.92318300   
    70       C         15.45053300     12.92318300      2.36848800   
    71       C          9.66651200      8.61946700      0.88818300   
    72       C         12.92318300      2.36848800     15.45053300   
    73       C         14.79342200     17.30392300     20.81332900   
    74       C         11.28642300     20.81092200      9.27417100   
    75       C          3.25667100      2.75842200     18.80107700   
    76       C         18.80107700      3.25667100      2.75842200   
    77       C         20.81332900     14.79342200     17.30392300   
    78       C         17.30392300     20.81332900     14.79342200   
    79       C          2.75842200     18.80107700      3.25667100   
    80       C         23.32142300     15.29407800     14.79582900   
    81       C          3.25907800     21.30917100      0.74857700   
    82       C          0.74857700      3.25907800     21.30917100   
    83       C         21.30917100      0.74857700      3.25907800   
    84       C         15.29407800     14.79582900     23.32142300   
    85       C         14.79582900     23.32142300     15.29407800   
    86       C          6.76607700      8.77832900     21.31157800   
    87       C          9.27657800      5.26892300     15.29167100   
    88       C         21.31157800      6.76607700      8.77832900   
    89       C         15.29167100      9.27657800      5.26892300   
    90       C          8.77832900     21.31157800      6.76607700   
    91       C          5.26892300     15.29167100      9.27657800   
    92       C         20.81092200      9.27417100     11.28642300   
    93       C          2.76082900     12.78357700      8.77592200   
    94       C         12.78357700      8.77592200      2.76082900   
    95       C          9.27417100     11.28642300     20.81092200   
    96       C          8.77592200      2.76082900     12.78357700   
    97       C         15.55884800     15.38313700     22.14199300   
    98       C          9.36563700     21.57634800      7.94550700   
    99       C          1.92800700      3.52384800     20.72186300   
   100       C         20.72186300      1.92800700      3.52384800   
   101       C         22.14199300     15.55884800     15.38313700   
   102       C         15.38313700     22.14199300     15.55884800   
   103       C          3.52384800     20.72186300      1.92800700   
   104       C         21.40063700     14.52865200     16.12449300   
   105       C          2.49365200     19.98050700      2.66936300   
   106       C          2.66936300      2.49365200     19.98050700   
   107       C         19.98050700      2.66936300      2.49365200   
   108       C         14.52865200     16.12449300     21.40063700   
   109       C         16.12449300     21.40063700     14.52865200   
   110       C          8.68686300     10.10699300     20.54615200   
   111       C          8.51115200      3.34813700     13.96300700   
   112       C         20.54615200      8.68686300     10.10699300   
   113       C         13.96300700      8.51115200      3.34813700   
   114       C         10.10699300     20.54615200      8.68686300   
   115       C          3.34813700     13.96300700      8.51115200   
   116       C         21.57634800      7.94550700      9.36563700   
   117       C          4.08949300     14.70436300      9.54134800   
   118       C         14.70436300      9.54134800      4.08949300   
   119       C          7.94550700      9.36563700     21.57634800   
   120       C          9.54134800      4.08949300     14.70436300   
   121       C         18.45687600     16.94528000     20.56300100   
   122       C         10.92778000      0.40437600      9.52449900   
   123       C          3.50699900      6.42187600     19.15972000   
   124       C         19.15972000      3.50699900      6.42187600   
   125       C         20.56300100     18.45687600     16.94528000   
   126       C         16.94528000     20.56300100     18.45687600   
   127       C          6.42187600     19.15972000      3.50699900   
   128       C         22.96278000     11.63062400     14.54550100   
   129       C         23.66562400     21.55949900      1.10722000   
   130       C          1.10722000     23.66562400     21.55949900   
   131       C         21.55949900      1.10722000     23.66562400   
   132       C         11.63062400     14.54550100     22.96278000   
   133       C         14.54550100     22.96278000     11.63062400   
   134       C          7.12472000      8.52800100     17.64812400   
   135       C          5.61312400      4.91028000     15.54199900   
   136       C         17.64812400      7.12472000      8.52800100   
   137       C         15.54199900      5.61312400      4.91028000   
   138       C          8.52800100     17.64812400      7.12472000   
   139       C          4.91028000     15.54199900      5.61312400   
   140       C          0.40437600      9.52449900     10.92778000   
   141       C          2.51050100     13.14222000     12.43937600   
   142       C         13.14222000     12.43937600      2.51050100   
   143       C          9.52449900     10.92778000      0.40437600   
   144       C         12.43937600      2.51050100     13.14222000   
   145       C         16.54812500     19.02011400     20.18991600   
   146       C         13.00261400     22.56562500      9.89758400   
   147       C          3.88008400      4.51312500     17.08488600   
   148       C         17.08488600      3.88008400      4.51312500   
   149       C         20.18991600     16.54812500     19.02011400   
   150       C         19.02011400     20.18991600     16.54812500   
   151       C          4.51312500     17.08488600      3.88008400   
   152       C          0.96761400     13.53937500     14.17241600   
   153       C          1.50437500     21.93258400     23.10238600   
   154       C         23.10238600      1.50437500     21.93258400   
   155       C         21.93258400     23.10238600      1.50437500   
   156       C         13.53937500     14.17241600      0.96761400   
   157       C         14.17241600      0.96761400     13.53937500   
   158       C          5.04988600      8.15491600     19.55687500   
   159       C          7.52187500      6.98511400     15.91508400   
   160       C         19.55687500      5.04988600      8.15491600   
   161       C         15.91508400      7.52187500      6.98511400   
   162       C          8.15491600     19.55687500      5.04988600   
   163       C          6.98511400     15.91508400      7.52187500   
   164       C         22.56562500      9.89758400     13.00261400   
   165       C          2.13741600     11.06738600     10.53062500   
   166       C         11.06738600     10.53062500      2.13741600   
   167       C          9.89758400     13.00261400     22.56562500   
   168       C         10.53062500      2.13741600     11.06738600   
   169       C         23.22514300     21.99035200     23.90873100   
   170       C         15.97285200      5.17264300      6.17876900   
   171       C          0.16126900     11.19014300     14.11464800   
   172       C         14.11464800      0.16126900     11.19014300   
   173       C         23.90873100     23.22514300     21.99035200   
   174       C         21.99035200     23.90873100     23.22514300   
   175       C         11.19014300     14.11464800      0.16126900   
   176       C          3.93785200      6.86235700     17.89123100   
   177       C         18.89735700     18.21376900     20.13214800   
   178       C         20.13214800     18.89735700     18.21376900   
   179       C         18.21376900     20.13214800     18.89735700   
   180       C          6.86235700     17.89123100      3.93785200   
   181       C         17.89123100      3.93785200      6.86235700   
   182       C          2.07964800     11.87373100     12.87985700   
   183       C          0.84485700      9.95535200     12.19626900   
   184       C         12.87985700      2.07964800     11.87373100   
   185       C         12.19626900      0.84485700      9.95535200   
   186       C         11.87373100     12.87985700      2.07964800   
   187       C          9.95535200     12.19626900      0.84485700   
   188       C          5.17264300      6.17876900     15.97285200   
   189       C          5.85623100      8.09714800     17.20764300   
   190       C          8.09714800     17.20764300      5.85623100   
   191       C          6.17876900     15.97285200      5.17264300   
   192       C         17.20764300      5.85623100      8.09714800   
   193       C         17.16672400     16.79123200     21.00829600   
   194       C         10.77373200     23.18422400      9.07920400   
   195       C          3.06170400      5.13172400     19.31376800   
   196       C         19.31376800      3.06170400      5.13172400   
   197       C         21.00829600     17.16672400     16.79123200   
   198       C         16.79123200     21.00829600     17.16672400   
   199       C          5.13172400     19.31376800      3.06170400   
   200       C         22.80873200     12.92077600     14.99079600   
   201       C          0.88577600     21.11420400      1.26126800   
   202       C          1.26126800      0.88577600     21.11420400   
   203       C         21.11420400      1.26126800      0.88577600   
   204       C         12.92077600     14.99079600     22.80873200   
   205       C         14.99079600     22.80873200     12.92077600   
   206       C          7.27876800      8.97329600     18.93827600   
   207       C          6.90327600      4.75623200     15.09670400   
   208       C         18.93827600      7.27876800      8.97329600   
   209       C         15.09670400      6.90327600      4.75623200   
   210       C          8.97329600     18.93827600      7.27876800   
   211       C          4.75623200     15.09670400      6.90327600   
   212       C         23.18422400      9.07920400     10.77373200   
   213       C          2.95579600     13.29626800     11.14922400   
   214       C         13.29626800     11.14922400      2.95579600   
   215       C          9.07920400     10.77373200     23.18422400   
   216       C         11.14922400      2.95579600     13.29626800   
   217       C         16.16300500     17.81420700     20.72908400   
   218       C         11.79670700     22.18050500      9.35841600   
   219       C          3.34091600      4.12800500     18.29079300   
   220       C         18.29079300      3.34091600      4.12800500   
   221       C         20.72908400     16.16300500     17.81420700   
   222       C         17.81420700     20.72908400     16.16300500   
   223       C          4.12800500     18.29079300      3.34091600   
   224       C         23.83170700     13.92449500     14.71158400   
   225       C          1.88949500     21.39341600      0.23829300   
   226       C          0.23829300      1.88949500     21.39341600   
   227       C         21.39341600      0.23829300      1.88949500   
   228       C         13.92449500     14.71158400     23.83170700   
   229       C         14.71158400     23.83170700     13.92449500   
   230       C          6.25579300      8.69408400     19.94199500   
   231       C          7.90699500      5.77920700     15.37591600   
   232       C         19.94199500      6.25579300      8.69408400   
   233       C         15.37591600      7.90699500      5.77920700   
   234       C          8.69408400     19.94199500      6.25579300   
   235       C          5.77920700     15.37591600      7.90699500   
   236       C         22.18050500      9.35841600     11.79670700   
   237       C          2.67658400     12.27329300     10.14550500   
   238       C         12.27329300     10.14550500      2.67658400   
   239       C          9.35841600     11.79670700     22.18050500   
   240       C         10.14550500      2.67658400     12.27329300   
   241       C         19.29932600     15.89101400     20.03346100   
   242       C          9.87351400      1.24682600     10.05403900   
   243       C          4.03653900      7.26432600     20.21398600   
   244       C         20.21398600      4.03653900      7.26432600   
   245       C         20.03346100     19.29932600     15.89101400   
   246       C         15.89101400     20.03346100     19.29932600   
   247       C          7.26432600     20.21398600      4.03653900   
   248       C         21.90851400     10.78817400     14.01596100   
   249       C         22.82317400     22.08903900      2.16148600   
   250       C          2.16148600     22.82317400     22.08903900   
   251       C         22.08903900      2.16148600     22.82317400   
   252       C         10.78817400     14.01596100     21.90851400   
   253       C         14.01596100     21.90851400     10.78817400   
   254       C          8.17898600      7.99846100     16.80567400   
   255       C          4.77067400      3.85601400     16.07153900   
   256       C         16.80567400      8.17898600      7.99846100   
   257       C         16.07153900      4.77067400      3.85601400   
   258       C          7.99846100     16.80567400      8.17898600   
   259       C          3.85601400     16.07153900      4.77067400   
   260       C          1.24682600     10.05403900      9.87351400   
   261       C          1.98096100     14.19648600     13.28182600   
   262       C         14.19648600     13.28182600      1.98096100   
   263       C         10.05403900      9.87351400      1.24682600   
   264       C         13.28182600      1.98096100     14.19648600   
   265       C         16.88029100     15.47701000     21.48728900   
   266       C          9.45951000     22.89779100      8.60021100   
   267       C          2.58271100      4.84529100     20.62799000   
   268       C         20.62799000      2.58271100      4.84529100   
   269       C         21.48728900     16.88029100     15.47701000   
   270       C         15.47701000     21.48728900     16.88029100   
   271       C          4.84529100     20.62799000      2.58271100   
   272       C         21.49451000     13.20720900     15.46978900   
   273       C          1.17220900     20.63521100      2.57549000   
   274       C          2.57549000      1.17220900     20.63521100   
   275       C         20.63521100      2.57549000      1.17220900   
   276       C         13.20720900     15.46978900     21.49451000   
   277       C         15.46978900     21.49451000     13.20720900   
   278       C          8.59299000      9.45228900     19.22470900   
   279       C          7.18970900      3.44201000     14.61771100   
   280       C         19.22470900      8.59299000      9.45228900   
   281       C         14.61771100      7.18970900      3.44201000   
   282       C          9.45228900     19.22470900      8.59299000   
   283       C          3.44201000     14.61771100      7.18970900   
   284       C         22.89779100      8.60021100      9.45951000   
   285       C          3.43478900     14.61049000     10.86279100   
   286       C         14.61049000     10.86279100      3.43478900   
   287       C          8.60021100      9.45951000     22.89779100   
   288       C         10.86279100      3.43478900     14.61049000   
   289       H         13.45031600     21.59801100     17.55184400   
   290       H         15.58051100     19.46781600     12.53565600   
   291       H          6.51815600      1.41531600     14.50698900   
   292       H         14.50698900      6.51815600      1.41531600   
   293       H         17.55184400     13.45031600     21.59801100   
   294       H         21.59801100     17.55184400     13.45031600   
   295       H          1.41531600     14.50698900      6.51815600   
   296       H          3.54551100     16.63718400     11.53434400   
   297       H          4.60218400      0.50065600     20.52448900   
   298       H         20.52448900      4.60218400      0.50065600   
   299       H          0.50065600     20.52448900      4.60218400   
   300       H         16.63718400     11.53434400      3.54551100   
   301       H         11.53434400      3.54551100     16.63718400   
   302       H          2.47198900      5.51684400     22.65468400   
   303       H         10.61968400      9.56301100     18.55315600   
   304       H         22.65468400      2.47198900      5.51684400   
   305       H         18.55315600     10.61968400      9.56301100   
   306       H          5.51684400     22.65468400      2.47198900   
   307       H          9.56301100     18.55315600     10.61968400   
   308       H         19.46781600     12.53565600     15.58051100   
   309       H         23.56934400      8.48948900      7.43281600   
   310       H          8.48948900      7.43281600     23.56934400   
   311       H         12.53565600     15.58051100     19.46781600   
   312       H          7.43281600     23.56934400      8.48948900   
   313       H         13.74878400     20.12733400     19.49910700   
   314       H         14.10983400     19.76628400     10.58839300   
   315       H          4.57089300      1.71378400     15.97766600   
   316       H         15.97766600      4.57089300      1.71378400   
   317       H         19.49910700     13.74878400     20.12733400   
   318       H         20.12733400     19.49910700     13.74878400   
   319       H          1.71378400     15.97766600      4.57089300   
   320       H          2.07483400     16.33871600     13.48160700   
   321       H          4.30371600     22.62339300     21.99516600   
   322       H         21.99516600      4.30371600     22.62339300   
   323       H         22.62339300     21.99516600      4.30371600   
   324       H         16.33871600     13.48160700      2.07483400   
   325       H         13.48160700      2.07483400     16.33871600   
   326       H          3.94266600      7.46410700     22.35621600   
   327       H         10.32121600      8.09233400     16.60589300   
   328       H         22.35621600      3.94266600      7.46410700   
   329       H         16.60589300     10.32121600      8.09233400   
   330       H          7.46410700     22.35621600      3.94266600   
   331       H          8.09233400     16.60589300     10.32121600   
   332       H         19.76628400     10.58839300     14.10983400   
   333       H          1.44660700      9.96016600      7.73128400   
   334       H          9.96016600      7.73128400      1.44660700   
   335       H         10.58839300     14.10983400     19.76628400   
   336       H          7.73128400      1.44660700      9.96016600   
   337       H         14.00392600     17.89845200     20.33674300   
   338       H         11.88095200     20.02142600      9.75075700   
   339       H          3.73325700      1.96892600     18.20654800   
   340       H         18.20654800      3.73325700      1.96892600   
   341       H         20.33674300     14.00392600     17.89845200   
   342       H         17.89845200     20.33674300     14.00392600   
   343       H          1.96892600     18.20654800      3.73325700   
   344       H         23.91595200     16.08357400     14.31924300   
   345       H          4.04857400     21.78575700      0.15404800   
   346       H          0.15404800      4.04857400     21.78575700   
   347       H         21.78575700      0.15404800      4.04857400   
   348       H         16.08357400     14.31924300     23.91595200   
   349       H         14.31924300     23.91595200     16.08357400   
   350       H          6.17154800      8.30174300     22.10107400   
   351       H         10.06607400      5.86345200     15.76825700   
   352       H         22.10107400      6.17154800      8.30174300   
   353       H         15.76825700     10.06607400      5.86345200   
   354       H          8.30174300     22.10107400      6.17154800   
   355       H          5.86345200     15.76825700     10.06607400   
   356       H         20.02142600      9.75075700     11.88095200   
   357       H          2.28424300     12.18904800      7.98642600   
   358       H         12.18904800      7.98642600      2.28424300   
   359       H          9.75075700     11.88095200     20.02142600   
   360       H          7.98642600      2.28424300     12.18904800   
   361      Tv         24.07000000      0.00000000      0.00000000   
   362      Tv          0.00000000     24.07000000      0.00000000   
   363      Tv          0.00000000      0.00000000     24.07000000   


                   THE SYSTEM IS A SOLID


                UNIT CELL TRANSLATION VECTORS

              X                Y              Z
    T1 =    24.0700000      0.0000000      0.0000000
    T2 =     0.0000000     24.0700000      0.0000000
    T3 =     0.0000000      0.0000000     24.0700000


          CARTESIAN COORDINATES 

    NO.       ATOM           X           Y           Z

     1         N         19.2175     19.9805     17.9851
     2         N         13.9630      1.1650     12.1024
     3         N          6.0849      7.1825     16.1245
     4         N         16.1245      6.0849      7.1825
     5         N         17.9851     19.2175     19.9805
     6         N         19.9805     17.9851     19.2175
     7         N          7.1825     16.1245      6.0849
     8         N          1.9280     10.8700     11.9676
     9         N         22.9050      0.0674     22.1420
    10         N         22.1420     22.9050      0.0674
    11         N          0.0674     22.1420     22.9050
    12         N         10.8700     11.9676      1.9280
    13         N         11.9676      1.9280     10.8700
    14         N          4.0895      5.9501     16.8875
    15         N          4.8525      7.9455     18.1199
    16         N         16.8875      4.0895      5.9501
    17         N         18.1199      4.8525      7.9455
    18         N          5.9501     16.8875      4.0895
    19         N          7.9455     18.1199      4.8525
    20         N          1.1650     12.1024     13.9630
    21         N         24.0026     10.1070     13.2000
    22         N         10.1070     13.2000     24.0026
    23         N         12.1024     13.9630      1.1650
    24         N         13.2000     24.0026     10.1070
    25         C         17.7661     14.4613     21.2297
    26         C          8.4438     23.7836      8.8578
    27         C          2.8403      5.7311     21.6437
    28         C         21.6437      2.8403      5.7311
    29         C         21.2297     17.7661     14.4613
    30         C         14.4613     21.2297     17.7661
    31         C          5.7311     21.6437      2.8403
    32         C         20.4788     12.3214     15.2122
    33         C          0.2864     20.8928      3.5912
    34         C          3.5912      0.2864     20.8928
    35         C         20.8928      3.5912      0.2864
    36         C         12.3214     15.2122     20.4788
    37         C         15.2122     20.4788     12.3214
    38         C          9.6087      9.1947     18.3389
    39         C          6.3039      2.4263     14.8753
    40         C         18.3389      9.6087      9.1947
    41         C         14.8753      6.3039      2.4263
    42         C          9.1947     18.3389      9.6087
    43         C          2.4263     14.8753      6.3039
    44         C         23.7836      8.8578      8.4438
    45         C          3.1772     15.6262     11.7486
    46         C         15.6262     11.7486      3.1772
    47         C          8.8578      8.4438     23.7836
    48         C         11.7486      3.1772     15.6262
    49         C         18.9407     14.6370     20.4210
    50         C          8.6195      0.8882      9.6665
    51         C          3.6490      6.9057     21.4680
    52         C         21.4680      3.6490      6.9057
    53         C         20.4210     18.9407     14.6370
    54         C         14.6370     20.4210     18.9407
    55         C          6.9057     21.4680      3.6490
    56         C         20.6545     11.1468     14.4035
    57         C         23.1818     21.7015      3.4155
    58         C          3.4155     23.1818     21.7015
    59         C         21.7015      3.4155     23.1818
    60         C         11.1468     14.4035     20.6545
    61         C         14.4035     20.6545     11.1468
    62         C          9.4330      8.3860     17.1643
    63         C          5.1293      2.6020     15.6840
    64         C         17.1643      9.4330      8.3860
    65         C         15.6840      5.1293      2.6020
    66         C          8.3860     17.1643      9.4330
    67         C          2.6020     15.6840      5.1293
    68         C          0.8882      9.6665      8.6195
    69         C          2.3685     15.4505     12.9232
    70         C         15.4505     12.9232      2.3685
    71         C          9.6665      8.6195      0.8882
    72         C         12.9232      2.3685     15.4505
    73         C         14.7934     17.3039     20.8133
    74         C         11.2864     20.8109      9.2742
    75         C          3.2567      2.7584     18.8011
    76         C         18.8011      3.2567      2.7584
    77         C         20.8133     14.7934     17.3039
    78         C         17.3039     20.8133     14.7934
    79         C          2.7584     18.8011      3.2567
    80         C         23.3214     15.2941     14.7958
    81         C          3.2591     21.3092      0.7486
    82         C          0.7486      3.2591     21.3092
    83         C         21.3092      0.7486      3.2591
    84         C         15.2941     14.7958     23.3214
    85         C         14.7958     23.3214     15.2941
    86         C          6.7661      8.7783     21.3116
    87         C          9.2766      5.2689     15.2917
    88         C         21.3116      6.7661      8.7783
    89         C         15.2917      9.2766      5.2689
    90         C          8.7783     21.3116      6.7661
    91         C          5.2689     15.2917      9.2766
    92         C         20.8109      9.2742     11.2864
    93         C          2.7608     12.7836      8.7759
    94         C         12.7836      8.7759      2.7608
    95         C          9.2742     11.2864     20.8109
    96         C          8.7759      2.7608     12.7836
    97         C         15.5588     15.3831     22.1420
    98         C          9.3656     21.5763      7.9455
    99         C          1.9280      3.5238     20.7219
   100         C         20.7219      1.9280      3.5238
   101         C         22.1420     15.5588     15.3831
   102         C         15.3831     22.1420     15.5588
   103         C          3.5238     20.7219      1.9280
   104         C         21.4006     14.5287     16.1245
   105         C          2.4937     19.9805      2.6694
   106         C          2.6694      2.4937     19.9805
   107         C         19.9805      2.6694      2.4937
   108         C         14.5287     16.1245     21.4006
   109         C         16.1245     21.4006     14.5287
   110         C          8.6869     10.1070     20.5462
   111         C          8.5112      3.3481     13.9630
   112         C         20.5462      8.6869     10.1070
   113         C         13.9630      8.5112      3.3481
   114         C         10.1070     20.5462      8.6869
   115         C          3.3481     13.9630      8.5112
   116         C         21.5763      7.9455      9.3656
   117         C          4.0895     14.7044      9.5413
   118         C         14.7044      9.5413      4.0895
   119         C          7.9455      9.3656     21.5763
   120         C          9.5413      4.0895     14.7044
   121         C         18.4569     16.9453     20.5630
   122         C         10.9278      0.4044      9.5245
   123         C          3.5070      6.4219     19.1597
   124         C         19.1597      3.5070      6.4219
   125         C         20.5630     18.4569     16.9453
   126         C         16.9453     20.5630     18.4569
   127         C          6.4219     19.1597      3.5070
   128         C         22.9628     11.6306     14.5455
   129         C         23.6656     21.5595      1.1072
   130         C          1.1072     23.6656     21.5595
   131         C         21.5595      1.1072     23.6656
   132         C         11.6306     14.5455     22.9628
   133         C         14.5455     22.9628     11.6306
   134         C          7.1247      8.5280     17.6481
   135         C          5.6131      4.9103     15.5420
   136         C         17.6481      7.1247      8.5280
   137         C         15.5420      5.6131      4.9103
   138         C          8.5280     17.6481      7.1247
   139         C          4.9103     15.5420      5.6131
   140         C          0.4044      9.5245     10.9278
   141         C          2.5105     13.1422     12.4394
   142         C         13.1422     12.4394      2.5105
   143         C          9.5245     10.9278      0.4044
   144         C         12.4394      2.5105     13.1422
   145         C         16.5481     19.0201     20.1899
   146         C         13.0026     22.5656      9.8976
   147         C          3.8801      4.5131     17.0849
   148         C         17.0849      3.8801      4.5131
   149         C         20.1899     16.5481     19.0201
   150         C         19.0201     20.1899     16.5481
   151         C          4.5131     17.0849      3.8801
   152         C          0.9676     13.5394     14.1724
   153         C          1.5044     21.9326     23.1024
   154         C         23.1024      1.5044     21.9326
   155         C         21.9326     23.1024      1.5044
   156         C         13.5394     14.1724      0.9676
   157         C         14.1724      0.9676     13.5394
   158         C          5.0499      8.1549     19.5569
   159         C          7.5219      6.9851     15.9151
   160         C         19.5569      5.0499      8.1549
   161         C         15.9151      7.5219      6.9851
   162         C          8.1549     19.5569      5.0499
   163         C          6.9851     15.9151      7.5219
   164         C         22.5656      9.8976     13.0026
   165         C          2.1374     11.0674     10.5306
   166         C         11.0674     10.5306      2.1374
   167         C          9.8976     13.0026     22.5656
   168         C         10.5306      2.1374     11.0674
   169         C         23.2251     21.9904     23.9087
   170         C         15.9729      5.1726      6.1788
   171         C          0.1613     11.1901     14.1146
   172         C         14.1146      0.1613     11.1901
   173         C         23.9087     23.2251     21.9904
   174         C         21.9904     23.9087     23.2251
   175         C         11.1901     14.1146      0.1613
   176         C          3.9379      6.8624     17.8912
   177         C         18.8974     18.2138     20.1321
   178         C         20.1321     18.8974     18.2138
   179         C         18.2138     20.1321     18.8974
   180         C          6.8624     17.8912      3.9379
   181         C         17.8912      3.9379      6.8624
   182         C          2.0796     11.8737     12.8799
   183         C          0.8449      9.9554     12.1963
   184         C         12.8799      2.0796     11.8737
   185         C         12.1963      0.8449      9.9554
   186         C         11.8737     12.8799      2.0796
   187         C          9.9554     12.1963      0.8449
   188         C          5.1726      6.1788     15.9729
   189         C          5.8562      8.0971     17.2076
   190         C          8.0971     17.2076      5.8562
   191         C          6.1788     15.9729      5.1726
   192         C         17.2076      5.8562      8.0971
   193         C         17.1667     16.7912     21.0083
   194         C         10.7737     23.1842      9.0792
   195         C          3.0617      5.1317     19.3138
   196         C         19.3138      3.0617      5.1317
   197         C         21.0083     17.1667     16.7912
   198         C         16.7912     21.0083     17.1667
   199         C          5.1317     19.3138      3.0617
   200         C         22.8087     12.9208     14.9908
   201         C          0.8858     21.1142      1.2613
   202         C          1.2613      0.8858     21.1142
   203         C         21.1142      1.2613      0.8858
   204         C         12.9208     14.9908     22.8087
   205         C         14.9908     22.8087     12.9208
   206         C          7.2788      8.9733     18.9383
   207         C          6.9033      4.7562     15.0967
   208         C         18.9383      7.2788      8.9733
   209         C         15.0967      6.9033      4.7562
   210         C          8.9733     18.9383      7.2788
   211         C          4.7562     15.0967      6.9033
   212         C         23.1842      9.0792     10.7737
   213         C          2.9558     13.2963     11.1492
   214         C         13.2963     11.1492      2.9558
   215         C          9.0792     10.7737     23.1842
   216         C         11.1492      2.9558     13.2963
   217         C         16.1630     17.8142     20.7291
   218         C         11.7967     22.1805      9.3584
   219         C          3.3409      4.1280     18.2908
   220         C         18.2908      3.3409      4.1280
   221         C         20.7291     16.1630     17.8142
   222         C         17.8142     20.7291     16.1630
   223         C          4.1280     18.2908      3.3409
   224         C         23.8317     13.9245     14.7116
   225         C          1.8895     21.3934      0.2383
   226         C          0.2383      1.8895     21.3934
   227         C         21.3934      0.2383      1.8895
   228         C         13.9245     14.7116     23.8317
   229         C         14.7116     23.8317     13.9245
   230         C          6.2558      8.6941     19.9420
   231         C          7.9070      5.7792     15.3759
   232         C         19.9420      6.2558      8.6941
   233         C         15.3759      7.9070      5.7792
   234         C          8.6941     19.9420      6.2558
   235         C          5.7792     15.3759      7.9070
   236         C         22.1805      9.3584     11.7967
   237         C          2.6766     12.2733     10.1455
   238         C         12.2733     10.1455      2.6766
   239         C          9.3584     11.7967     22.1805
   240         C         10.1455      2.6766     12.2733
   241         C         19.2993     15.8910     20.0335
   242         C          9.8735      1.2468     10.0540
   243         C          4.0365      7.2643     20.2140
   244         C         20.2140      4.0365      7.2643
   245         C         20.0335     19.2993     15.8910
   246         C         15.8910     20.0335     19.2993
   247         C          7.2643     20.2140      4.0365
   248         C         21.9085     10.7882     14.0160
   249         C         22.8232     22.0890      2.1615
   250         C          2.1615     22.8232     22.0890
   251         C         22.0890      2.1615     22.8232
   252         C         10.7882     14.0160     21.9085
   253         C         14.0160     21.9085     10.7882
   254         C          8.1790      7.9985     16.8057
   255         C          4.7707      3.8560     16.0715
   256         C         16.8057      8.1790      7.9985
   257         C         16.0715      4.7707      3.8560
   258         C          7.9985     16.8057      8.1790
   259         C          3.8560     16.0715      4.7707
   260         C          1.2468     10.0540      9.8735
   261         C          1.9810     14.1965     13.2818
   262         C         14.1965     13.2818      1.9810
   263         C         10.0540      9.8735      1.2468
   264         C         13.2818      1.9810     14.1965
   265         C         16.8803     15.4770     21.4873
   266         C          9.4595     22.8978      8.6002
   267         C          2.5827      4.8453     20.6280
   268         C         20.6280      2.5827      4.8453
   269         C         21.4873     16.8803     15.4770
   270         C         15.4770     21.4873     16.8803
   271         C          4.8453     20.6280      2.5827
   272         C         21.4945     13.2072     15.4698
   273         C          1.1722     20.6352      2.5755
   274         C          2.5755      1.1722     20.6352
   275         C         20.6352      2.5755      1.1722
   276         C         13.2072     15.4698     21.4945
   277         C         15.4698     21.4945     13.2072
   278         C          8.5930      9.4523     19.2247
   279         C          7.1897      3.4420     14.6177
   280         C         19.2247      8.5930      9.4523
   281         C         14.6177      7.1897      3.4420
   282         C          9.4523     19.2247      8.5930
   283         C          3.4420     14.6177      7.1897
   284         C         22.8978      8.6002      9.4595
   285         C          3.4348     14.6105     10.8628
   286         C         14.6105     10.8628      3.4348
   287         C          8.6002      9.4595     22.8978
   288         C         10.8628      3.4348     14.6105
   289         H         13.4503     21.5980     17.5518
   290         H         15.5805     19.4678     12.5357
   291         H          6.5182      1.4153     14.5070
   292         H         14.5070      6.5182      1.4153
   293         H         17.5518     13.4503     21.5980
   294         H         21.5980     17.5518     13.4503
   295         H          1.4153     14.5070      6.5182
   296         H          3.5455     16.6372     11.5343
   297         H          4.6022      0.5007     20.5245
   298         H         20.5245      4.6022      0.5007
   299         H          0.5007     20.5245      4.6022
   300         H         16.6372     11.5343      3.5455
   301         H         11.5343      3.5455     16.6372
   302         H          2.4720      5.5168     22.6547
   303         H         10.6197      9.5630     18.5532
   304         H         22.6547      2.4720      5.5168
   305         H         18.5532     10.6197      9.5630
   306         H          5.5168     22.6547      2.4720
   307         H          9.5630     18.5532     10.6197
   308         H         19.4678     12.5357     15.5805
   309         H         23.5693      8.4895      7.4328
   310         H          8.4895      7.4328     23.5693
   311         H         12.5357     15.5805     19.4678
   312         H          7.4328     23.5693      8.4895
   313         H         13.7488     20.1273     19.4991
   314         H         14.1098     19.7663     10.5884
   315         H          4.5709      1.7138     15.9777
   316         H         15.9777      4.5709      1.7138
   317         H         19.4991     13.7488     20.1273
   318         H         20.1273     19.4991     13.7488
   319         H          1.7138     15.9777      4.5709
   320         H          2.0748     16.3387     13.4816
   321         H          4.3037     22.6234     21.9952
   322         H         21.9952      4.3037     22.6234
   323         H         22.6234     21.9952      4.3037
   324         H         16.3387     13.4816      2.0748
   325         H         13.4816      2.0748     16.3387
   326         H          3.9427      7.4641     22.3562
   327         H         10.3212      8.0923     16.6059
   328         H         22.3562      3.9427      7.4641
   329         H         16.6059     10.3212      8.0923
   330         H          7.4641     22.3562      3.9427
   331         H          8.0923     16.6059     10.3212
   332         H         19.7663     10.5884     14.1098
   333         H          1.4466      9.9602      7.7313
   334         H          9.9602      7.7313      1.4466
   335         H         10.5884     14.1098     19.7663
   336         H          7.7313      1.4466      9.9602
   337         H         14.0039     17.8985     20.3367
   338         H         11.8810     20.0214      9.7508
   339         H          3.7333      1.9689     18.2065
   340         H         18.2065      3.7333      1.9689
   341         H         20.3367     14.0039     17.8985
   342         H         17.8985     20.3367     14.0039
   343         H          1.9689     18.2065      3.7333
   344         H         23.9160     16.0836     14.3192
   345         H          4.0486     21.7858      0.1540
   346         H          0.1540      4.0486     21.7858
   347         H         21.7858      0.1540      4.0486
   348         H         16.0836     14.3192     23.9160
   349         H         14.3192     23.9160     16.0836
   350         H          6.1715      8.3017     22.1011
   351         H         10.0661      5.8635     15.7683
   352         H         22.1011      6.1715      8.3017
   353         H         15.7683     10.0661      5.8635
   354         H          8.3017     22.1011      6.1715
   355         H          5.8635     15.7683     10.0661
   356         H         20.0214      9.7508     11.8810
   357         H          2.2842     12.1890      7.9864
   358         H         12.1890      7.9864      2.2842
   359         H          9.7508     11.8810     20.0214
   360         H          7.9864      2.2842     12.1890

 General Reference for PM7:
 "Optimization of Parameters for Semiempirical Methods VI: More Modifications to the 
 NDDO Approximations and Re-optimization of Parameters", J. J. P. Stewart, J. Mol. Mod., 1:32, 19 (2013)
 https://link.springer.com/article/10.1007/s00894-012-1667-x

           Empirical Formula: C264 H72 N24  =   360 atoms



      RHF CALCULATION, NO. OF DOUBLY OCCUPIED LEVELS = 624


 -------------------------------------------------------------------------------
 PM7 CHARGE=0 NOOPT




     NO PARAMETERS MARKED FOR OPTIMIZATION, SO 1SCF WAS USED  
     SCF FIELD WAS ACHIEVED                                   


                              PM7 CALCULATION
                                                       MOPAC v22.1.0 Linux
                                                       Thu Feb  1 16:10:45 2024




          FINAL HEAT OF FORMATION =       3046.87301 KCAL/MOL =   12748.11666 KJ/MOL
          H.o.F. per unit cell    =        126.95304 KCAL, for 24 unit cells, unit cell = C11 H3 N1



          IONIZATION POTENTIAL    =          6.453832 EV
          HOMO LUMO ENERGIES (EV) =         -6.454 -3.188
          NO. OF FILLED LEVELS    =        624
          MOLECULAR WEIGHT        =       3579.6336

                   THE SYSTEM IS A SOLID


                UNIT CELL TRANSLATION VECTORS

              X                Y              Z
    T1 =    24.0700000      0.0000000      0.0000000
    T2 =     0.0000000     24.0700000      0.0000000
    T3 =     0.0000000      0.0000000     24.0700000

          VOLUME OF UNIT CELL     =      13945.313 CUBIC ANGSTROMS

          DENSITY                 =          0.426 GRAMS/CC
                              A   =         24.070 ANGSTROMS
                              B   =         24.070 ANGSTROMS
                              C   =         24.070 ANGSTROMS
                            ALPHA =         90.000 DEGREES
                            BETA  =         90.000 DEGREES
                            GAMMA =         90.000 DEGREES



          SCF CALCULATIONS        =          1

          WALL-CLOCK TIME         =          7 MINUTES AND 8.195 SECONDS
          COMPUTATION TIME        =          7 MINUTES AND 8.191 SECONDS




   ATOM   CHEMICAL          X               Y               Z
  NUMBER   SYMBOL      (ANGSTROMS)     (ANGSTROMS)     (ANGSTROMS)

     1       N         19.21748800     19.98050700     17.98510400   
     2       N         13.96300700      1.16498800     12.10239600   
     3       N          6.08489600      7.18248800     16.12449300   
     4       N         16.12449300      6.08489600      7.18248800   
     5       N         17.98510400     19.21748800     19.98050700   
     6       N         19.98050700     17.98510400     19.21748800   
     7       N          7.18248800     16.12449300      6.08489600   
     8       N          1.92800700     10.87001200     11.96760400   
     9       N         22.90501200      0.06739600     22.14199300   
    10       N         22.14199300     22.90501200      0.06739600   
    11       N          0.06739600     22.14199300     22.90501200   
    12       N         10.87001200     11.96760400      1.92800700   
    13       N         11.96760400      1.92800700     10.87001200   
    14       N          4.08949300      5.95010400     16.88751200   
    15       N          4.85251200      7.94550700     18.11989600   
    16       N         16.88751200      4.08949300      5.95010400   
    17       N         18.11989600      4.85251200      7.94550700   
    18       N          5.95010400     16.88751200      4.08949300   
    19       N          7.94550700     18.11989600      4.85251200   
    20       N          1.16498800     12.10239600     13.96300700   
    21       N         24.00260400     10.10699300     13.19998800   
    22       N         10.10699300     13.19998800     24.00260400   
    23       N         12.10239600     13.96300700      1.16498800   
    24       N         13.19998800     24.00260400     10.10699300   
    25       C         17.76606700     14.46125600     21.22974000   
    26       C          8.44375600     23.78356700      8.85776000   
    27       C          2.84026000      5.73106700     21.64374400   
    28       C         21.64374400      2.84026000      5.73106700   
    29       C         21.22974000     17.76606700     14.46125600   
    30       C         14.46125600     21.22974000     17.76606700   
    31       C          5.73106700     21.64374400      2.84026000   
    32       C         20.47875600     12.32143300     15.21224000   
    33       C          0.28643300     20.89276000      3.59124400   
    34       C          3.59124400      0.28643300     20.89276000   
    35       C         20.89276000      3.59124400      0.28643300   
    36       C         12.32143300     15.21224000     20.47875600   
    37       C         15.21224000     20.47875600     12.32143300   
    38       C          9.60874400      9.19474000     18.33893300   
    39       C          6.30393300      2.42625600     14.87526000   
    40       C         18.33893300      9.60874400      9.19474000   
    41       C         14.87526000      6.30393300      2.42625600   
    42       C          9.19474000     18.33893300      9.60874400   
    43       C          2.42625600     14.87526000      6.30393300   
    44       C         23.78356700      8.85776000      8.44375600   
    45       C          3.17724000     15.62624400     11.74856700   
    46       C         15.62624400     11.74856700      3.17724000   
    47       C          8.85776000      8.44375600     23.78356700   
    48       C         11.74856700      3.17724000     15.62624400   
    49       C         18.94068300     14.63696700     20.42098800   
    50       C          8.61946700      0.88818300      9.66651200   
    51       C          3.64901200      6.90568300     21.46803300   
    52       C         21.46803300      3.64901200      6.90568300   
    53       C         20.42098800     18.94068300     14.63696700   
    54       C         14.63696700     20.42098800     18.94068300   
    55       C          6.90568300     21.46803300      3.64901200   
    56       C         20.65446700     11.14681700     14.40348800   
    57       C         23.18181700     21.70151200      3.41553300   
    58       C          3.41553300     23.18181700     21.70151200   
    59       C         21.70151200      3.41553300     23.18181700   
    60       C         11.14681700     14.40348800     20.65446700   
    61       C         14.40348800     20.65446700     11.14681700   
    62       C          9.43303300      8.38598800     17.16431700   
    63       C          5.12931700      2.60196700     15.68401200   
    64       C         17.16431700      9.43303300      8.38598800   
    65       C         15.68401200      5.12931700      2.60196700   
    66       C          8.38598800     17.16431700      9.43303300   
    67       C          2.60196700     15.68401200      5.12931700   
    68       C          0.88818300      9.66651200      8.61946700   
    69       C          2.36848800     15.45053300     12.92318300   
    70       C         15.45053300     12.92318300      2.36848800   
    71       C          9.66651200      8.61946700      0.88818300   
    72       C         12.92318300      2.36848800     15.45053300   
    73       C         14.79342200     17.30392300     20.81332900   
    74       C         11.28642300     20.81092200      9.27417100   
    75       C          3.25667100      2.75842200     18.80107700   
    76       C         18.80107700      3.25667100      2.75842200   
    77       C         20.81332900     14.79342200     17.30392300   
    78       C         17.30392300     20.81332900     14.79342200   
    79       C          2.75842200     18.80107700      3.25667100   
    80       C         23.32142300     15.29407800     14.79582900   
    81       C          3.25907800     21.30917100      0.74857700   
    82       C          0.74857700      3.25907800     21.30917100   
    83       C         21.30917100      0.74857700      3.25907800   
    84       C         15.29407800     14.79582900     23.32142300   
    85       C         14.79582900     23.32142300     15.29407800   
    86       C          6.76607700      8.77832900     21.31157800   
    87       C          9.27657800      5.26892300     15.29167100   
    88       C         21.31157800      6.76607700      8.77832900   
    89       C         15.29167100      9.27657800      5.26892300   
    90       C          8.77832900     21.31157800      6.76607700   
    91       C          5.26892300     15.29167100      9.27657800   
    92       C         20.81092200      9.27417100     11.28642300   
    93       C          2.76082900     12.78357700      8.77592200   
    94       C         12.78357700      8.77592200      2.76082900   
    95       C          9.27417100     11.28642300     20.81092200   
    96       C          8.77592200      2.76082900     12.78357700   
    97       C         15.55884800     15.38313700     22.14199300   
    98       C          9.36563700     21.57634800      7.94550700   
    99       C          1.92800700      3.52384800     20.72186300   
   100       C         20.72186300      1.92800700      3.52384800   
   101       C         22.14199300     15.55884800     15.38313700   
   102       C         15.38313700     22.14199300     15.55884800   
   103       C          3.52384800     20.72186300      1.92800700   
   104       C         21.40063700     14.52865200     16.12449300   
   105       C          2.49365200     19.98050700      2.66936300   
   106       C          2.66936300      2.49365200     19.98050700   
   107       C         19.98050700      2.66936300      2.49365200   
   108       C         14.52865200     16.12449300     21.40063700   
   109       C         16.12449300     21.40063700     14.52865200   
   110       C          8.68686300     10.10699300     20.54615200   
   111       C          8.51115200      3.34813700     13.96300700   
   112       C         20.54615200      8.68686300     10.10699300   
   113       C         13.96300700      8.51115200      3.34813700   
   114       C         10.10699300     20.54615200      8.68686300   
   115       C          3.34813700     13.96300700      8.51115200   
   116       C         21.57634800      7.94550700      9.36563700   
   117       C          4.08949300     14.70436300      9.54134800   
   118       C         14.70436300      9.54134800      4.08949300   
   119       C          7.94550700      9.36563700     21.57634800   
   120       C          9.54134800      4.08949300     14.70436300   
   121       C         18.45687600     16.94528000     20.56300100   
   122       C         10.92778000      0.40437600      9.52449900   
   123       C          3.50699900      6.42187600     19.15972000   
   124       C         19.15972000      3.50699900      6.42187600   
   125       C         20.56300100     18.45687600     16.94528000   
   126       C         16.94528000     20.56300100     18.45687600   
   127       C          6.42187600     19.15972000      3.50699900   
   128       C         22.96278000     11.63062400     14.54550100   
   129       C         23.66562400     21.55949900      1.10722000   
   130       C          1.10722000     23.66562400     21.55949900   
   131       C         21.55949900      1.10722000     23.66562400   
   132       C         11.63062400     14.54550100     22.96278000   
   133       C         14.54550100     22.96278000     11.63062400   
   134       C          7.12472000      8.52800100     17.64812400   
   135       C          5.61312400      4.91028000     15.54199900   
   136       C         17.64812400      7.12472000      8.52800100   
   137       C         15.54199900      5.61312400      4.91028000   
   138       C          8.52800100     17.64812400      7.12472000   
   139       C          4.91028000     15.54199900      5.61312400   
   140       C          0.40437600      9.52449900     10.92778000   
   141       C          2.51050100     13.14222000     12.43937600   
   142       C         13.14222000     12.43937600      2.51050100   
   143       C          9.52449900     10.92778000      0.40437600   
   144       C         12.43937600      2.51050100     13.14222000   
   145       C         16.54812500     19.02011400     20.18991600   
   146       C         13.00261400     22.56562500      9.89758400   
   147       C          3.88008400      4.51312500     17.08488600   
   148       C         17.08488600      3.88008400      4.51312500   
   149       C         20.18991600     16.54812500     19.02011400   
   150       C         19.02011400     20.18991600     16.54812500   
   151       C          4.51312500     17.08488600      3.88008400   
   152       C          0.96761400     13.53937500     14.17241600   
   153       C          1.50437500     21.93258400     23.10238600   
   154       C         23.10238600      1.50437500     21.93258400   
   155       C         21.93258400     23.10238600      1.50437500   
   156       C         13.53937500     14.17241600      0.96761400   
   157       C         14.17241600      0.96761400     13.53937500   
   158       C          5.04988600      8.15491600     19.55687500   
   159       C          7.52187500      6.98511400     15.91508400   
   160       C         19.55687500      5.04988600      8.15491600   
   161       C         15.91508400      7.52187500      6.98511400   
   162       C          8.15491600     19.55687500      5.04988600   
   163       C          6.98511400     15.91508400      7.52187500   
   164       C         22.56562500      9.89758400     13.00261400   
   165       C          2.13741600     11.06738600     10.53062500   
   166       C         11.06738600     10.53062500      2.13741600   
   167       C          9.89758400     13.00261400     22.56562500   
   168       C         10.53062500      2.13741600     11.06738600   
   169       C         23.22514300     21.99035200     23.90873100   
   170       C         15.97285200      5.17264300      6.17876900   
   171       C          0.16126900     11.19014300     14.11464800   
   172       C         14.11464800      0.16126900     11.19014300   
   173       C         23.90873100     23.22514300     21.99035200   
   174       C         21.99035200     23.90873100     23.22514300   
   175       C         11.19014300     14.11464800      0.16126900   
   176       C          3.93785200      6.86235700     17.89123100   
   177       C         18.89735700     18.21376900     20.13214800   
   178       C         20.13214800     18.89735700     18.21376900   
   179       C         18.21376900     20.13214800     18.89735700   
   180       C          6.86235700     17.89123100      3.93785200   
   181       C         17.89123100      3.93785200      6.86235700   
   182       C          2.07964800     11.87373100     12.87985700   
   183       C          0.84485700      9.95535200     12.19626900   
   184       C         12.87985700      2.07964800     11.87373100   
   185       C         12.19626900      0.84485700      9.95535200   
   186       C         11.87373100     12.87985700      2.07964800   
   187       C          9.95535200     12.19626900      0.84485700   
   188       C          5.17264300      6.17876900     15.97285200   
   189       C          5.85623100      8.09714800     17.20764300   
   190       C          8.09714800     17.20764300      5.85623100   
   191       C          6.17876900     15.97285200      5.17264300   
   192       C         17.20764300      5.85623100      8.09714800   
   193       C         17.16672400     16.79123200     21.00829600   
   194       C         10.77373200     23.18422400      9.07920400   
   195       C          3.06170400      5.13172400     19.31376800   
   196       C         19.31376800      3.06170400      5.13172400   
   197       C         21.00829600     17.16672400     16.79123200   
   198       C         16.79123200     21.00829600     17.16672400   
   199       C          5.13172400     19.31376800      3.06170400   
   200       C         22.80873200     12.92077600     14.99079600   
   201       C          0.88577600     21.11420400      1.26126800   
   202       C          1.26126800      0.88577600     21.11420400   
   203       C         21.11420400      1.26126800      0.88577600   
   204       C         12.92077600     14.99079600     22.80873200   
   205       C         14.99079600     22.80873200     12.92077600   
   206       C          7.27876800      8.97329600     18.93827600   
   207       C          6.90327600      4.75623200     15.09670400   
   208       C         18.93827600      7.27876800      8.97329600   
   209       C         15.09670400      6.90327600      4.75623200   
   210       C          8.97329600     18.93827600      7.27876800   
   211       C          4.75623200     15.09670400      6.90327600   
   212       C         23.18422400      9.07920400     10.77373200   
   213       C          2.95579600     13.29626800     11.14922400   
   214       C         13.29626800     11.14922400      2.95579600   
   215       C          9.07920400     10.77373200     23.18422400   
   216       C         11.14922400      2.95579600     13.29626800   
   217       C         16.16300500     17.81420700     20.72908400   
   218       C         11.79670700     22.18050500      9.35841600   
   219       C          3.34091600      4.12800500     18.29079300   
   220       C         18.29079300      3.34091600      4.12800500   
   221       C         20.72908400     16.16300500     17.81420700   
   222       C         17.81420700     20.72908400     16.16300500   
   223       C          4.12800500     18.29079300      3.34091600   
   224       C         23.83170700     13.92449500     14.71158400   
   225       C          1.88949500     21.39341600      0.23829300   
   226       C          0.23829300      1.88949500     21.39341600   
   227       C         21.39341600      0.23829300      1.88949500   
   228       C         13.92449500     14.71158400     23.83170700   
   229       C         14.71158400     23.83170700     13.92449500   
   230       C          6.25579300      8.69408400     19.94199500   
   231       C          7.90699500      5.77920700     15.37591600   
   232       C         19.94199500      6.25579300      8.69408400   
   233       C         15.37591600      7.90699500      5.77920700   
   234       C          8.69408400     19.94199500      6.25579300   
   235       C          5.77920700     15.37591600      7.90699500   
   236       C         22.18050500      9.35841600     11.79670700   
   237       C          2.67658400     12.27329300     10.14550500   
   238       C         12.27329300     10.14550500      2.67658400   
   239       C          9.35841600     11.79670700     22.18050500   
   240       C         10.14550500      2.67658400     12.27329300   
   241       C         19.29932600     15.89101400     20.03346100   
   242       C          9.87351400      1.24682600     10.05403900   
   243       C          4.03653900      7.26432600     20.21398600   
   244       C         20.21398600      4.03653900      7.26432600   
   245       C         20.03346100     19.29932600     15.89101400   
   246       C         15.89101400     20.03346100     19.29932600   
   247       C          7.26432600     20.21398600      4.03653900   
   248       C         21.90851400     10.78817400     14.01596100   
   249       C         22.82317400     22.08903900      2.16148600   
   250       C          2.16148600     22.82317400     22.08903900   
   251       C         22.08903900      2.16148600     22.82317400   
   252       C         10.78817400     14.01596100     21.90851400   
   253       C         14.01596100     21.90851400     10.78817400   
   254       C          8.17898600      7.99846100     16.80567400   
   255       C          4.77067400      3.85601400     16.07153900   
   256       C         16.80567400      8.17898600      7.99846100   
   257       C         16.07153900      4.77067400      3.85601400   
   258       C          7.99846100     16.80567400      8.17898600   
   259       C          3.85601400     16.07153900      4.77067400   
   260       C          1.24682600     10.05403900      9.87351400   
   261       C          1.98096100     14.19648600     13.28182600   
   262       C         14.19648600     13.28182600      1.98096100   
   263       C         10.05403900      9.87351400      1.24682600   
   264       C         13.28182600      1.98096100     14.19648600   
   265       C         16.88029100     15.47701000     21.48728900   
   266       C          9.45951000     22.89779100      8.60021100   
   267       C          2.58271100      4.84529100     20.62799000   
   268       C         20.62799000      2.58271100      4.84529100   
   269       C         21.48728900     16.88029100     15.47701000   
   270       C         15.47701000     21.48728900     16.88029100   
   271       C          4.84529100     20.62799000      2.58271100   
   272       C         21.49451000     13.20720900     15.46978900   
   273       C          1.17220900     20.63521100      2.57549000   
   274       C          2.57549000      1.17220900     20.63521100   
   275       C         20.63521100      2.57549000      1.17220900   
   276       C         13.20720900     15.46978900     21.49451000   
   277       C         15.46978900     21.49451000     13.20720900   
   278       C          8.59299000      9.45228900     19.22470900   
   279       C          7.18970900      3.44201000     14.61771100   
   280       C         19.22470900      8.59299000      9.45228900   
   281       C         14.61771100      7.18970900      3.44201000   
   282       C          9.45228900     19.22470900      8.59299000   
   283       C          3.44201000     14.61771100      7.18970900   
   284       C         22.89779100      8.60021100      9.45951000   
   285       C          3.43478900     14.61049000     10.86279100   
   286       C         14.61049000     10.86279100      3.43478900   
   287       C          8.60021100      9.45951000     22.89779100   
   288       C         10.86279100      3.43478900     14.61049000   
   289       H         13.45031600     21.59801100     17.55184400   
   290       H         15.58051100     19.46781600     12.53565600   
   291       H          6.51815600      1.41531600     14.50698900   
   292       H         14.50698900      6.51815600      1.41531600   
   293       H         17.55184400     13.45031600     21.59801100   
   294       H         21.59801100     17.55184400     13.45031600   
   295       H          1.41531600     14.50698900      6.51815600   
   296       H          3.54551100     16.63718400     11.53434400   
   297       H          4.60218400      0.50065600     20.52448900   
   298       H         20.52448900      4.60218400      0.50065600   
   299       H          0.50065600     20.52448900      4.60218400   
   300       H         16.63718400     11.53434400      3.54551100   
   301       H         11.53434400      3.54551100     16.63718400   
   302       H          2.47198900      5.51684400     22.65468400   
   303       H         10.61968400      9.56301100     18.55315600   
   304       H         22.65468400      2.47198900      5.51684400   
   305       H         18.55315600     10.61968400      9.56301100   
   306       H          5.51684400     22.65468400      2.47198900   
   307       H          9.56301100     18.55315600     10.61968400   
   308       H         19.46781600     12.53565600     15.58051100   
   309       H         23.56934400      8.48948900      7.43281600   
   310       H          8.48948900      7.43281600     23.56934400   
   311       H         12.53565600     15.58051100     19.46781600   
   312       H          7.43281600     23.56934400      8.48948900   
   313       H         13.74878400     20.12733400     19.49910700   
   314       H         14.10983400     19.76628400     10.58839300   
   315       H          4.57089300      1.71378400     15.97766600   
   316       H         15.97766600      4.57089300      1.71378400   
   317       H         19.49910700     13.74878400     20.12733400   
   318       H         20.12733400     19.49910700     13.74878400   
   319       H          1.71378400     15.97766600      4.57089300   
   320       H          2.07483400     16.33871600     13.48160700   
   321       H          4.30371600     22.62339300     21.99516600   
   322       H         21.99516600      4.30371600     22.62339300   
   323       H         22.62339300     21.99516600      4.30371600   
   324       H         16.33871600     13.48160700      2.07483400   
   325       H         13.48160700      2.07483400     16.33871600   
   326       H          3.94266600      7.46410700     22.35621600   
   327       H         10.32121600      8.09233400     16.60589300   
   328       H         22.35621600      3.94266600      7.46410700   
   329       H         16.60589300     10.32121600      8.09233400   
   330       H          7.46410700     22.35621600      3.94266600   
   331       H          8.09233400     16.60589300     10.32121600   
   332       H         19.76628400     10.58839300     14.10983400   
   333       H          1.44660700      9.96016600      7.73128400   
   334       H          9.96016600      7.73128400      1.44660700   
   335       H         10.58839300     14.10983400     19.76628400   
   336       H          7.73128400      1.44660700      9.96016600   
   337       H         14.00392600     17.89845200     20.33674300   
   338       H         11.88095200     20.02142600      9.75075700   
   339       H          3.73325700      1.96892600     18.20654800   
   340       H         18.20654800      3.73325700      1.96892600   
   341       H         20.33674300     14.00392600     17.89845200   
   342       H         17.89845200     20.33674300     14.00392600   
   343       H          1.96892600     18.20654800      3.73325700   
   344       H         23.91595200     16.08357400     14.31924300   
   345       H          4.04857400     21.78575700      0.15404800   
   346       H          0.15404800      4.04857400     21.78575700   
   347       H         21.78575700      0.15404800      4.04857400   
   348       H         16.08357400     14.31924300     23.91595200   
   349       H         14.31924300     23.91595200     16.08357400   
   350       H          6.17154800      8.30174300     22.10107400   
   351       H         10.06607400      5.86345200     15.76825700   
   352       H         22.10107400      6.17154800      8.30174300   
   353       H         15.76825700     10.06607400      5.86345200   
   354       H          8.30174300     22.10107400      6.17154800   
   355       H          5.86345200     15.76825700     10.06607400   
   356       H         20.02142600      9.75075700     11.88095200   
   357       H          2.28424300     12.18904800      7.98642600   
   358       H         12.18904800      7.98642600      2.28424300   
   359       H          9.75075700     11.88095200     20.02142600   
   360       H          7.98642600      2.28424300     12.18904800   
   361      Tv         24.07000000      0.00000000      0.00000000   
   362      Tv          0.00000000     24.07000000      0.00000000   
   363      Tv          0.00000000      0.00000000     24.07000000   

                             CARTESIAN COORDINATES

   1    N       19.217488000    19.980507000    17.985104000
   2    N       13.963007000     1.164988000    12.102396000
   3    N        6.084896000     7.182488000    16.124493000
   4    N       16.124493000     6.084896000     7.182488000
   5    N       17.985104000    19.217488000    19.980507000
   6    N       19.980507000    17.985104000    19.217488000
   7    N        7.182488000    16.124493000     6.084896000
   8    N        1.928007000    10.870012000    11.967604000
   9    N       22.905012000     0.067396000    22.141993000
  10    N       22.141993000    22.905012000     0.067396000
  11    N        0.067396000    22.141993000    22.905012000
  12    N       10.870012000    11.967604000     1.928007000
  13    N       11.967604000     1.928007000    10.870012000
  14    N        4.089493000     5.950104000    16.887512000
  15    N        4.852512000     7.945507000    18.119896000
  16    N       16.887512000     4.089493000     5.950104000
  17    N       18.119896000     4.852512000     7.945507000
  18    N        5.950104000    16.887512000     4.089493000
  19    N        7.945507000    18.119896000     4.852512000
  20    N        1.164988000    12.102396000    13.963007000
  21    N       24.002604000    10.106993000    13.199988000
  22    N       10.106993000    13.199988000    24.002604000
  23    N       12.102396000    13.963007000     1.164988000
  24    N       13.199988000    24.002604000    10.106993000
  25    C       17.766067000    14.461256000    21.229740000
  26    C        8.443756000    23.783567000     8.857760000
  27    C        2.840260000     5.731067000    21.643744000
  28    C       21.643744000     2.840260000     5.731067000
  29    C       21.229740000    17.766067000    14.461256000
  30    C       14.461256000    21.229740000    17.766067000
  31    C        5.731067000    21.643744000     2.840260000
  32    C       20.478756000    12.321433000    15.212240000
  33    C        0.286433000    20.892760000     3.591244000
  34    C        3.591244000     0.286433000    20.892760000
  35    C       20.892760000     3.591244000     0.286433000
  36    C       12.321433000    15.212240000    20.478756000
  37    C       15.212240000    20.478756000    12.321433000
  38    C        9.608744000     9.194740000    18.338933000
  39    C        6.303933000     2.426256000    14.875260000
  40    C       18.338933000     9.608744000     9.194740000
  41    C       14.875260000     6.303933000     2.426256000
  42    C        9.194740000    18.338933000     9.608744000
  43    C        2.426256000    14.875260000     6.303933000
  44    C       23.783567000     8.857760000     8.443756000
  45    C        3.177240000    15.626244000    11.748567000
  46    C       15.626244000    11.748567000     3.177240000
  47    C        8.857760000     8.443756000    23.783567000
  48    C       11.748567000     3.177240000    15.626244000
  49    C       18.940683000    14.636967000    20.420988000
  50    C        8.619467000     0.888183000     9.666512000
  51    C        3.649012000     6.905683000    21.468033000
  52    C       21.468033000     3.649012000     6.905683000
  53    C       20.420988000    18.940683000    14.636967000
  54    C       14.636967000    20.420988000    18.940683000
  55    C        6.905683000    21.468033000     3.649012000
  56    C       20.654467000    11.146817000    14.403488000
  57    C       23.181817000    21.701512000     3.415533000
  58    C        3.415533000    23.181817000    21.701512000
  59    C       21.701512000     3.415533000    23.181817000
  60    C       11.146817000    14.403488000    20.654467000
  61    C       14.403488000    20.654467000    11.146817000
  62    C        9.433033000     8.385988000    17.164317000
  63    C        5.129317000     2.601967000    15.684012000
  64    C       17.164317000     9.433033000     8.385988000
  65    C       15.684012000     5.129317000     2.601967000
  66    C        8.385988000    17.164317000     9.433033000
  67    C        2.601967000    15.684012000     5.129317000
  68    C        0.888183000     9.666512000     8.619467000
  69    C        2.368488000    15.450533000    12.923183000
  70    C       15.450533000    12.923183000     2.368488000
  71    C        9.666512000     8.619467000     0.888183000
  72    C       12.923183000     2.368488000    15.450533000
  73    C       14.793422000    17.303923000    20.813329000
[...]
  293          H           0.170878        0.8291     0.82912
  294          H           0.159106        0.8409     0.84089
  295          H           0.161854        0.8381     0.83815
  296          H           0.160693        0.8393     0.83931
  297          H           0.149412        0.8506     0.85059
  298          H           0.159772        0.8402     0.84023
  299          H           0.150468        0.8495     0.84953
  300          H           0.161748        0.8383     0.83825
  301          H           0.159837        0.8402     0.84016
  302          H           0.168410        0.8316     0.83159
  303          H           0.173026        0.8270     0.82697
  304          H           0.160331        0.8397     0.83967
  305          H           0.159176        0.8408     0.84082
  306          H           0.169983        0.8300     0.83002
  307          H           0.173172        0.8268     0.82683
  308          H           0.160190        0.8398     0.83981
  309          H           0.163265        0.8367     0.83673
  310          H           0.150979        0.8490     0.84902
  311          H           0.149159        0.8508     0.85084
  312          H           0.149778        0.8502     0.85022
  313          H           0.163405        0.8366     0.83660
  314          H           0.148323        0.8517     0.85168
  315          H           0.174327        0.8257     0.82567
  316          H           0.169123        0.8309     0.83088
  317          H           0.162653        0.8373     0.83735
  318          H           0.175033        0.8250     0.82497
  319          H           0.173852        0.8261     0.82615
  320          H           0.170534        0.8295     0.82947
  321          H           0.148825        0.8512     0.85117
  322          H           0.154790        0.8452     0.84521
  323          H           0.163851        0.8361     0.83615
  324          H           0.154235        0.8458     0.84576
  325          H           0.156288        0.8437     0.84371
  326          H           0.161064        0.8389     0.83894
  327          H           0.164625        0.8354     0.83537
  328          H           0.159607        0.8404     0.84039
  329          H           0.151981        0.8480     0.84802
  330          H           0.163257        0.8367     0.83674
  331          H           0.160931        0.8391     0.83907
  332          H           0.163086        0.8369     0.83691
  333          H           0.151989        0.8480     0.84801
  334          H           0.161759        0.8382     0.83824
  335          H           0.147695        0.8523     0.85230
  336          H           0.161335        0.8387     0.83866
  337          H           0.178861        0.8211     0.82114
  338          H           0.159200        0.8408     0.84080
  339          H           0.178649        0.8214     0.82135
  340          H           0.168830        0.8312     0.83117
  341          H           0.165039        0.8350     0.83496
  342          H           0.178803        0.8212     0.82120
  343          H           0.175582        0.8244     0.82442
  344          H           0.170286        0.8297     0.82971
  345          H           0.161224        0.8388     0.83878
  346          H           0.152041        0.8480     0.84796
  347          H           0.175583        0.8244     0.82442
  348          H           0.151598        0.8484     0.84840
  349          H           0.152555        0.8474     0.84744
  350          H           0.177120        0.8229     0.82288
  351          H           0.164385        0.8356     0.83561
  352          H           0.163529        0.8365     0.83647
  353          H           0.169404        0.8306     0.83060
  354          H           0.177046        0.8230     0.82295
  355          H           0.163835        0.8362     0.83616
  356          H           0.166835        0.8332     0.83316
  357          H           0.168999        0.8310     0.83100
  358          H           0.173001        0.8270     0.82700
  359          H           0.158616        0.8414     0.84138
  360          H           0.174833        0.8252     0.82517


          ATOMIC ORBITAL ELECTRON POPULATIONS

     Atom    s        px        py        pz   
    1  N   1.53514   1.17078   1.31635   1.11220
    2  N   1.54501   1.35739   1.22460   1.10170
    3  N   1.55795   1.12003   1.25998   1.39666
    4  N   1.54322   1.32214   1.10958   1.21930
    5  N   1.53132   1.10721   1.16390   1.23319
    6  N   1.55693   1.39264   1.11821   1.25777
    7  N   1.55629   1.25588   1.38357   1.11824
    8  N   1.54515   1.32615   1.22448   1.11124
    9  N   1.54265   1.21587   1.10097   1.34553
   10  N   1.53900   1.33395   1.19910   1.10465
   11  N   1.54283   1.10904   1.35610   1.21677
   12  N   1.53776   1.19529   1.10426   1.32563
   13  N   1.53710   1.10376   1.31990   1.19274
   14  N   1.53485   1.31299   1.11280   1.16825
   15  N   1.53244   1.16828   1.23822   1.10775
   16  N   1.54823   1.22924   1.38296   1.11095
   17  N   1.52989   1.10222   1.16198   1.27469
   18  N   1.53797   1.11364   1.18186   1.33321
   19  N   1.53025   1.23131   1.10641   1.15873
   20  N   1.54833   1.22690   1.11347   1.38266
   21  N   1.52896   1.10395   1.26062   1.15519
   22  N   1.54204   1.35579   1.21402   1.10802
   23  N   1.54417   1.10130   1.35370   1.22134
   24  N   1.54158   1.21141   1.10828   1.35541
   25  C   1.07980   1.00701   1.08658   1.06055
   26  C   1.08807   1.06087   0.96448   0.96301
   27  C   1.07771   1.07295   1.01193   1.08662
   28  C   1.07836   1.07432   1.05106   1.00357
   29  C   1.09137   0.95189   0.96155   1.06415
   30  C   1.07792   1.08557   1.07172   1.01215
   31  C   1.07862   1.00928   1.08586   1.06684
   32  C   1.07897   1.07464   1.00459   1.05083
   33  C   1.08901   0.96262   0.95831   1.06095
   34  C   1.07519   1.06595   1.00152   1.04930
   35  C   1.07505   1.08198   1.07874   1.01682
   36  C   1.07531   1.00100   1.04809   1.06548
   37  C   1.07626   1.04036   1.06457   0.99785
   38  C   1.08058   1.08675   1.05591   1.00457
   39  C   1.09113   0.96152   1.06516   0.95357
   40  C   1.07415   1.01308   1.07828   1.07678
   41  C   1.09052   0.96469   0.96516   1.06966
   42  C   1.07873   1.06850   1.00947   1.08840
   43  C   1.09196   1.06682   0.95216   0.96130
   44  C   1.07356   1.01717   1.08728   1.08253
   45  C   1.09062   0.96441   1.06861   0.96664
   46  C   1.07504   1.08050   1.01782   1.08454
   47  C   1.08820   0.96248   1.06118   0.96427
   48  C   1.07555   1.01721   1.08081   1.07887
   49  C   1.08963   0.97015   1.02812   0.93333
   50  C   1.07058   1.04093   1.03803   1.06328
   51  C   1.08827   0.93686   0.97355   1.02702
   52  C   1.08424   1.03419   0.96247   0.98700
   53  C   1.07487   1.04566   1.03100   1.04604
   54  C   1.08867   1.02877   0.93500   0.97250
   55  C   1.08836   0.97486   1.02892   0.93884
   56  C   1.08445   1.03492   0.98638   0.96213
   57  C   1.07111   1.03731   1.06206   1.04157
   58  C   1.07614   1.02757   1.00437   0.99795
   59  C   1.08831   0.93221   1.02994   0.96853
   60  C   1.07599   1.00519   0.99940   1.02807
   61  C   1.07525   1.00571   1.02929   1.00874
   62  C   1.08974   1.02847   0.93460   0.97089
   63  C   1.07508   1.03087   1.04495   1.04447
   64  C   1.08291   0.98200   1.02316   0.95687
   65  C   1.07813   1.02451   1.01831   1.04172
   66  C   1.09026   0.92807   0.96757   1.02647
   67  C   1.07533   1.04491   1.04474   1.03038
   68  C   1.08532   0.97474   0.94266   1.02143
   69  C   1.07723   1.02993   1.04248   1.02085
   70  C   1.08861   1.02883   0.96770   0.93108
   71  C   1.07076   1.06283   1.04080   1.03789
   72  C   1.08842   0.96796   0.93253   1.03055
   73  C   1.06373   1.00809   1.05672   1.18247
   74  C   1.09108   0.97833   1.00531   0.89044
   75  C   1.06539   1.18832   1.01757   1.05911
   76  C   1.08089   1.02429   1.03142   1.01381
   77  C   1.07902   1.00950   1.00056   1.01406
   78  C   1.06593   1.05863   1.18535   1.01812
   79  C   1.06786   1.01968   1.05475   1.17083
   80  C   1.07609   1.02970   1.01741   1.07888
   81  C   1.09009   1.00304   0.89862   0.98130
   82  C   1.08668   0.99202   1.00153   0.92261
   83  C   1.08069   1.04600   1.02416   1.01974
   84  C   1.08753   1.00368   0.91792   0.98970
   85  C   1.08692   0.92280   0.99250   1.00187
   86  C   1.06542   1.05275   1.17008   1.00920
   87  C   1.07991   0.99979   1.01563   1.00482
   88  C   1.07586   1.00844   1.02186   1.04527
   89  C   1.08230   0.98449   1.00177   1.00680
   90  C   1.06486   1.17869   1.01076   1.05558
   91  C   1.07663   1.01642   1.03504   1.00312
   92  C   1.07186   1.00915   1.09033   1.03402
   93  C   1.07787   1.02290   1.00994   1.00377
   94  C   1.07954   1.02402   1.02295   1.06053
   95  C   1.09073   0.89378   0.97902   1.00522
   96  C   1.07857   1.02297   1.06761   1.02465
   97  C   1.05250   0.96753   1.12227   1.02937
   98  C   1.07709   0.87323   0.95093   0.92076
   99  C   1.05379   1.02583   0.97308   1.11659
  100  C   1.07139   0.96011   0.97087   0.96824
  101  C   1.07038   0.96011   0.95535   0.94546
  102  C   1.05519   1.10805   1.02421   0.97452
  103  C   1.05216   0.97526   1.12435   1.03145
  104  C   1.06625   1.00489   0.97397   0.98703
  105  C   1.07827   0.95025   0.92279   0.86965
  106  C   1.08037   0.86201   0.95366   0.91939
  107  C   1.07188   0.97666   0.96970   0.97457
  108  C   1.07849   0.95618   0.92323   0.87169
  109  C   1.08058   0.92000   0.86009   0.95406
  110  C   1.04969   1.13899   1.03669   0.96839
  111  C   1.06887   0.95422   0.95479   0.96388
  112  C   1.06688   0.95923   0.98593   0.96303
  113  C   1.06852   0.96628   0.95403   0.95978
  114  C   1.04924   1.03869   0.96920   1.14501
  115  C   1.06164   1.00901   0.98310   0.95785
  116  C   1.06215   0.96153   0.98263   1.03071
  117  C   1.06424   0.97880   0.99466   0.95897
  118  C   1.06413   1.02452   0.97732   0.99531
  119  C   1.07616   0.92447   0.87945   0.95155
  120  C   1.06750   0.97808   0.98799   1.00316
  121  C   1.06107   0.98211   0.94987   1.02089
  122  C   1.05358   0.95763   1.01454   1.10415
  123  C   1.06255   0.96271   0.96447   0.93854
  124  C   1.05921   0.95204   0.99688   0.96749
  125  C   1.05657   1.11010   1.02022   0.96103
  126  C   1.06261   0.94037   0.96288   0.96386
  127  C   1.06236   0.96535   0.94087   0.96653
  128  C   1.05989   0.95148   0.96939   0.99708
  129  C   1.05325   1.01844   1.11390   0.95896
  130  C   1.05986   0.95231   0.97461   1.00719
  131  C   1.05855   0.98771   0.95262   0.95892
  132  C   1.05930   0.97429   1.01001   0.95287
  133  C   1.05902   1.01797   0.95338   0.97714
  134  C   1.06100   0.95103   1.02871   0.98513
  135  C   1.05685   1.01890   0.95937   1.10641
  136  C   1.06191   0.96494   0.94313   0.97147
  137  C   1.05368   1.12878   1.02242   0.96204
  138  C   1.06166   1.00802   0.97737   0.94810
  139  C   1.05628   0.96096   1.12016   1.02457
  140  C   1.06262   0.96246   0.96336   0.94090
  141  C   1.05448   1.13048   0.96251   1.02451
  142  C   1.05843   0.95238   0.96078   0.99210
  143  C   1.05364   1.10528   0.95811   1.01525
  144  C   1.05835   0.96125   0.99469   0.95379
  145  C   1.07602   0.74548   1.00706   1.09044
  146  C   1.08158   0.95393   0.74229   0.98729
  147  C   1.05689   1.19583   0.74461   1.04654
  148  C   1.07688   0.98471   1.04080   0.76243
  149  C   1.09122   0.94200   0.74510   0.94250
  150  C   1.05746   1.04460   1.19006   0.74631
  151  C   1.05934   0.74695   1.03996   1.17519
  152  C   1.07271   0.99692   0.75838   1.07023
  153  C   1.08525   0.74158   0.96934   0.94919
  154  C   1.09072   0.92561   0.76843   0.92771
  155  C   1.07097   1.09196   1.00936   0.76555
  156  C   1.09162   0.76958   0.91977   0.92317
  157  C   1.09164   0.91979   0.92294   0.76862
  158  C   1.07783   1.00474   1.08014   0.74517
  159  C   1.09082   0.74493   0.94450   0.94635
  160  C   1.07272   0.75602   0.98402   1.06940
  161  C   1.09120   0.95767   0.73999   0.95381
  162  C   1.07471   1.09812   0.74691   1.01016
  163  C   1.09097   0.94645   0.94826   0.74234
  164  C   1.07041   0.75407   1.09546   0.99656
  165  C   1.09245   0.95236   0.95218   0.73896
  166  C   1.06993   1.01300   0.76428   1.10032
  167  C   1.08376   0.97452   0.94957   0.74318
  168  C   1.06974   0.76434   1.10236   1.01381
  169  C   1.03400   0.82154   1.04257   0.89177
  170  C   1.04831   0.94786   0.82370   0.86399
  171  C   1.01935   0.93082   0.88067   1.18639
  172  C   1.02005   1.15093   0.91905   0.88705
  173  C   1.01865   0.92304   0.89695   1.16405
  174  C   1.02472   1.15235   0.91776   0.91365
  175  C   1.01893   0.89397   1.16205   0.92218
  176  C   1.01622   1.21182   0.90084   0.94611
  177  C   1.04011   0.91244   0.89102   1.03624
  178  C   1.04175   1.00648   0.80099   0.88740
  179  C   1.01605   0.94433   1.21106   0.90093
  180  C   1.01674   0.89224   0.94320   1.20704
  181  C   1.01864   0.92812   1.18522   0.88369
  182  C   1.04940   0.94268   0.86358   0.82071
  183  C   1.01717   0.93180   1.19126   0.93566
  184  C   1.02747   0.91235   1.13135   0.91153
  185  C   1.03098   0.89851   0.82446   1.06422
  186  C   1.02649   0.91443   0.91236   1.13962
  187  C   1.03160   1.05955   0.89658   0.82520
  188  C   1.04123   0.80340   0.89110   1.01667
  189  C   1.04284   0.88790   1.02221   0.90759
  190  C   1.03811   1.05389   0.91916   0.89769
  191  C   1.04575   0.88008   0.97691   0.79659
  192  C   1.01549   0.92180   0.93478   1.19266
  193  C   1.06198   0.96071   1.01014   1.03116
  194  C   1.06194   0.96383   0.94679   0.91732
  195  C   1.05186   1.11573   0.96916   1.01412
  196  C   1.04794   0.99098   1.08141   0.96968
  197  C   1.06549   0.90886   0.94582   0.97426
  198  C   1.05107   1.01312   1.11884   0.97041
  199  C   1.05073   0.96943   1.01166   1.11739
  200  C   1.04909   0.99422   0.96990   1.08387
  201  C   1.06234   0.94614   0.91410   0.96383
  202  C   1.05637   0.97576   0.95558   0.96978
  203  C   1.04318   1.13692   0.99704   0.97749
  204  C   1.05571   0.95619   0.97330   0.97486
  205  C   1.05667   0.96358   0.97368   0.95516
  206  C   1.06264   1.00916   1.02461   0.95950
  207  C   1.06478   0.94561   0.97589   0.91647
  208  C   1.05515   0.96149   0.99703   1.03817
  209  C   1.06586   0.91724   0.94684   0.97518
  210  C   1.06069   1.04502   0.96165   1.01206
  211  C   1.06778   0.97696   0.90085   0.94368
  212  C   1.05485   0.96292   1.05864   1.00439
  213  C   1.06772   0.90748   0.97700   0.94587
  214  C   1.04454   0.99900   0.97621   1.13272
  215  C   1.06201   0.91670   0.96418   0.94659
  216  C   1.04458   0.97712   1.13083   0.99787
  217  C   1.07434   0.99503   0.91852   0.90676
  218  C   1.03557   0.98354   0.98343   1.23878
  219  C   1.07922   0.82981   0.98010   0.90735
  220  C   1.06447   0.93491   0.98948   0.98379
  221  C   1.04881   1.15300   0.99976   0.95486
  222  C   1.07974   0.90730   0.82757   0.98033
  223  C   1.07832   0.97975   0.90990   0.84102
  224  C   1.06699   0.92890   0.98206   0.95855
  225  C   1.03630   0.98711   1.23976   0.98213
  226  C   1.03763   0.97060   0.99059   1.22637
  227  C   1.07019   0.92958   0.93209   0.97648
  228  C   1.03731   0.98942   1.22944   0.97154
  229  C   1.03806   1.22672   0.96995   0.99142
  230  C   1.07332   0.92147   0.91731   0.99465
  231  C   1.04965   1.00035   0.95300   1.14599
  232  C   1.05531   0.98464   0.94482   1.04774
  233  C   1.04893   1.15026   0.99662   0.96399
  234  C   1.07495   0.89660   0.99258   0.91809
  235  C   1.04955   0.95332   1.14292   0.99923
  236  C   1.06134   0.98565   0.99317   0.93407
  237  C   1.04939   1.14421   0.96049   0.99730
  238  C   1.06990   0.93212   0.97480   0.92589
  239  C   1.03537   1.24307   0.98337   0.98459
  240  C   1.07048   0.97521   0.92223   0.93209
  241  C   1.05478   1.02305   0.98697   1.04468
  242  C   1.06398   0.97566   0.94894   0.96424
  243  C   1.05086   1.04854   1.01685   0.99046
  244  C   1.05653   0.98206   1.02983   1.00218
  245  C   1.06708   0.94056   0.93808   0.96677
  246  C   1.05169   0.98889   1.04409   1.01407
  247  C   1.05231   1.01152   0.98832   1.04053
  248  C   1.05693   0.98071   0.99839   1.02384
  249  C   1.06540   0.94647   0.95911   0.97477
  250  C   1.04897   0.98686   1.01993   1.06548
  251  C   1.05715   1.05265   0.98866   1.02501
  252  C   1.04955   1.01784   1.06230   0.98591
  253  C   1.05017   1.05677   0.98457   1.01304
  254  C   1.05560   0.98606   1.04111   1.02095
  255  C   1.06667   0.93929   0.96713   0.94272
  256  C   1.04636   1.03429   0.99397   1.07995
  257  C   1.06696   0.96279   0.95807   0.97379
  258  C   1.05311   1.05174   1.02787   0.98845
  259  C   1.06717   0.96746   0.94154   0.94071
  260  C   1.04586   1.04031   1.08398   0.99508
  261  C   1.06713   0.95705   0.97141   0.95401
  262  C   1.05693   0.98927   1.02695   1.05437
  263  C   1.06437   0.96333   0.97531   0.94877
  264  C   1.05774   1.02381   1.04962   0.98797
  265  C   1.07174   0.95725   0.94255   0.91206
  266  C   1.05661   0.98940   0.98878   1.07865
  267  C   1.07163   0.89674   0.95011   0.94476
  268  C   1.06412   0.96946   0.96976   0.96123
  269  C   1.05794   1.05786   0.99315   0.97811
  270  C   1.07119   0.94682   0.89995   0.95029
  271  C   1.07068   0.94983   0.94594   0.90090
  272  C   1.06460   0.96707   0.95921   0.96067
  273  C   1.05720   0.98961   1.07764   0.98878
  274  C   1.05721   0.98079   0.97782   1.04954
  275  C   1.06844   0.93034   0.96647   0.94608
  276  C   1.05687   0.97658   1.04845   0.98191
  277  C   1.05619   1.05752   0.98265   0.98028
  278  C   1.07133   0.94135   0.91404   0.95738
  279  C   1.05818   0.99313   0.97550   1.05301
  280  C   1.06632   0.96139   0.95971   0.96280
  281  C   1.06231   1.02941   0.98414   0.97376
  282  C   1.07205   0.90309   0.95371   0.93920
  283  C   1.05913   0.97237   1.04280   0.99048
  284  C   1.06885   0.95636   0.93567   0.95169
  285  C   1.06149   1.02988   0.97267   0.98397
  286  C   1.06895   0.96197   0.94338   0.91913
  287  C   1.05669   1.07702   0.98874   0.98835
  288  C   1.06860   0.94431   0.92566   0.96512
  289  H   0.83222
  290  H   0.85148
  291  H   0.83893
  292  H   0.83791
  293  H   0.82912
  294  H   0.84089
  295  H   0.83815
  296  H   0.83931
  297  H   0.85059
  298  H   0.84023
  299  H   0.84953
  300  H   0.83825
  301  H   0.84016
  302  H   0.83159
  303  H   0.82697
  304  H   0.83967
  305  H   0.84082
  306  H   0.83002
  307  H   0.82683
  308  H   0.83981
  309  H   0.83673
  310  H   0.84902
  311  H   0.85084
  312  H   0.85022
  313  H   0.83660
  314  H   0.85168
  315  H   0.82567
  316  H   0.83088
  317  H   0.83735
  318  H   0.82497
  319  H   0.82615
  320  H   0.82947
  321  H   0.85117
  322  H   0.84521
  323  H   0.83615
  324  H   0.84576
  325  H   0.84371
  326  H   0.83894
  327  H   0.83537
  328  H   0.84039
  329  H   0.84802
  330  H   0.83674
  331  H   0.83907
  332  H   0.83691
  333  H   0.84801
  334  H   0.83824
  335  H   0.85230
  336  H   0.83866
  337  H   0.82114
  338  H   0.84080
  339  H   0.82135
  340  H   0.83117
  341  H   0.83496
  342  H   0.82120
  343  H   0.82442
  344  H   0.82971
  345  H   0.83878
  346  H   0.84796
  347  H   0.82442
  348  H   0.84840
  349  H   0.84744
  350  H   0.82288
  351  H   0.83561
  352  H   0.83647
  353  H   0.83060
  354  H   0.82295
  355  H   0.83616
  356  H   0.83316
  357  H   0.83100
  358  H   0.82700
  359  H   0.84138
  360  H   0.82517

 **********************
 *                    *
 * JOB ENDED NORMALLY *
 *                    *
 **********************



 TOTAL JOB TIME:           428.30 SECONDS

 == MOPAC DONE ==
