 *******************************************************************************
 **                                                                           **
 **                              MOPAC v22.1.0                                **
 **                                                                           **
 *******************************************************************************
 **          Digital Object Identifier (DOI): 10.5281/zenodo.6511958          **
 **    Visit the DOI location for information on how to cite this program.    **
 *******************************************************************************

                              PM7 CALCULATION RESULTS

 *******************************************************************************
 *  CALCULATION DONE:                                Wed Jan 31 13:44:13 2024  *
 *  PM7        - The PM7 Hamiltonian to be used
 *  NOOPT      - DO NOT OPTIMIZE ANY COORDINATES
 *
 *
 *
 *                 CHARGE ON SYSTEM = 0
 *
 *
 *
 *  T=         - A TIME OF 172800.0 SECONDS REQUESTED
 *  DUMP=N     - RESTART FILE WRITTEN EVERY 7200.0 SECONDS REQUESTED
 *******************************************************************************
PM7 CHARGE=0 NOOPT


   ATOM   CHEMICAL          X               Y               Z
  NUMBER   SYMBOL      (ANGSTROMS)     (ANGSTROMS)     (ANGSTROMS)

     1       N         15.55884800     15.38313700     22.14199300   
     2       N          9.36563700     21.57634800      7.94550700   
     3       N          1.92800700      3.52384800     20.72186300   
     4       N         20.72186300      1.92800700      3.52384800   
     5       N         22.14199300     15.55884800     15.38313700   
     6       N         15.38313700     22.14199300     15.55884800   
     7       N          3.52384800     20.72186300      1.92800700   
     8       N         21.40063700     14.52865200     16.12449300   
     9       N          2.49365200     19.98050700      2.66936300   
    10       N          2.66936300      2.49365200     19.98050700   
    11       N         19.98050700      2.66936300      2.49365200   
    12       N         14.52865200     16.12449300     21.40063700   
    13       N         16.12449300     21.40063700     14.52865200   
    14       N          8.68686300     10.10699300     20.54615200   
    15       N          8.51115200      3.34813700     13.96300700   
    16       N         20.54615200      8.68686300     10.10699300   
    17       N         13.96300700      8.51115200      3.34813700   
    18       N         10.10699300     20.54615200      8.68686300   
    19       N          3.34813700     13.96300700      8.51115200   
    20       N         21.57634800      7.94550700      9.36563700   
    21       N          4.08949300     14.70436300      9.54134800   
    22       N         14.70436300      9.54134800      4.08949300   
    23       N          7.94550700      9.36563700     21.57634800   
    24       N          9.54134800      4.08949300     14.70436300   
    25       C         17.76606700     14.46125600     21.22974000   
    26       C          8.44375600     23.78356700      8.85776000   
    27       C          2.84026000      5.73106700     21.64374400   
    28       C         21.64374400      2.84026000      5.73106700   
    29       C         21.22974000     17.76606700     14.46125600   
    30       C         14.46125600     21.22974000     17.76606700   
    31       C          5.73106700     21.64374400      2.84026000   
    32       C         20.47875600     12.32143300     15.21224000   
    33       C          0.28643300     20.89276000      3.59124400   
    34       C          3.59124400      0.28643300     20.89276000   
    35       C         20.89276000      3.59124400      0.28643300   
    36       C         12.32143300     15.21224000     20.47875600   
    37       C         15.21224000     20.47875600     12.32143300   
    38       C          9.60874400      9.19474000     18.33893300   
    39       C          6.30393300      2.42625600     14.87526000   
    40       C         18.33893300      9.60874400      9.19474000   
    41       C         14.87526000      6.30393300      2.42625600   
    42       C          9.19474000     18.33893300      9.60874400   
    43       C          2.42625600     14.87526000      6.30393300   
    44       C         23.78356700      8.85776000      8.44375600   
    45       C          3.17724000     15.62624400     11.74856700   
    46       C         15.62624400     11.74856700      3.17724000   
    47       C          8.85776000      8.44375600     23.78356700   
    48       C         11.74856700      3.17724000     15.62624400   
    49       C         18.94068300     14.63696700     20.42098800   
    50       C          8.61946700      0.88818300      9.66651200   
    51       C          3.64901200      6.90568300     21.46803300   
    52       C         21.46803300      3.64901200      6.90568300   
    53       C         20.42098800     18.94068300     14.63696700   
    54       C         14.63696700     20.42098800     18.94068300   
    55       C          6.90568300     21.46803300      3.64901200   
    56       C         20.65446700     11.14681700     14.40348800   
    57       C         23.18181700     21.70151200      3.41553300   
    58       C          3.41553300     23.18181700     21.70151200   
    59       C         21.70151200      3.41553300     23.18181700   
    60       C         11.14681700     14.40348800     20.65446700   
    61       C         14.40348800     20.65446700     11.14681700   
    62       C          9.43303300      8.38598800     17.16431700   
    63       C          5.12931700      2.60196700     15.68401200   
    64       C         17.16431700      9.43303300      8.38598800   
    65       C         15.68401200      5.12931700      2.60196700   
    66       C          8.38598800     17.16431700      9.43303300   
    67       C          2.60196700     15.68401200      5.12931700   
    68       C          0.88818300      9.66651200      8.61946700   
    69       C          2.36848800     15.45053300     12.92318300   
    70       C         15.45053300     12.92318300      2.36848800   
    71       C          9.66651200      8.61946700      0.88818300   
    72       C         12.92318300      2.36848800     15.45053300   
    73       C         14.79342200     17.30392300     20.81332900   
    74       C         11.28642300     20.81092200      9.27417100   
    75       C          3.25667100      2.75842200     18.80107700   
    76       C         18.80107700      3.25667100      2.75842200   
    77       C         20.81332900     14.79342200     17.30392300   
    78       C         17.30392300     20.81332900     14.79342200   
    79       C          2.75842200     18.80107700      3.25667100   
    80       C         23.32142300     15.29407800     14.79582900   
    81       C          3.25907800     21.30917100      0.74857700   
    82       C          0.74857700      3.25907800     21.30917100   
    83       C         21.30917100      0.74857700      3.25907800   
    84       C         15.29407800     14.79582900     23.32142300   
    85       C         14.79582900     23.32142300     15.29407800   
    86       C          6.76607700      8.77832900     21.31157800   
    87       C          9.27657800      5.26892300     15.29167100   
    88       C         21.31157800      6.76607700      8.77832900   
    89       C         15.29167100      9.27657800      5.26892300   
    90       C          8.77832900     21.31157800      6.76607700   
    91       C          5.26892300     15.29167100      9.27657800   
    92       C         20.81092200      9.27417100     11.28642300   
    93       C          2.76082900     12.78357700      8.77592200   
    94       C         12.78357700      8.77592200      2.76082900   
    95       C          9.27417100     11.28642300     20.81092200   
    96       C          8.77592200      2.76082900     12.78357700   
    97       C         19.21748800     19.98050700     17.98510400   
    98       C         13.96300700      1.16498800     12.10239600   
    99       C          6.08489600      7.18248800     16.12449300   
   100       C         16.12449300      6.08489600      7.18248800   
   101       C         17.98510400     19.21748800     19.98050700   
   102       C         19.98050700     17.98510400     19.21748800   
   103       C          7.18248800     16.12449300      6.08489600   
   104       C          1.92800700     10.87001200     11.96760400   
   105       C         22.90501200      0.06739600     22.14199300   
   106       C         22.14199300     22.90501200      0.06739600   
   107       C          0.06739600     22.14199300     22.90501200   
   108       C         10.87001200     11.96760400      1.92800700   
   109       C         11.96760400      1.92800700     10.87001200   
   110       C          4.08949300      5.95010400     16.88751200   
   111       C          4.85251200      7.94550700     18.11989600   
   112       C         16.88751200      4.08949300      5.95010400   
   113       C         18.11989600      4.85251200      7.94550700   
   114       C          5.95010400     16.88751200      4.08949300   
   115       C          7.94550700     18.11989600      4.85251200   
   116       C          1.16498800     12.10239600     13.96300700   
   117       C         24.00260400     10.10699300     13.19998800   
   118       C         10.10699300     13.19998800     24.00260400   
   119       C         12.10239600     13.96300700      1.16498800   
   120       C         13.19998800     24.00260400     10.10699300   
   121       C         18.45687600     16.94528000     20.56300100   
   122       C         10.92778000      0.40437600      9.52449900   
   123       C          3.50699900      6.42187600     19.15972000   
   124       C         19.15972000      3.50699900      6.42187600   
   125       C         20.56300100     18.45687600     16.94528000   
   126       C         16.94528000     20.56300100     18.45687600   
   127       C          6.42187600     19.15972000      3.50699900   
   128       C         22.96278000     11.63062400     14.54550100   
   129       C         23.66562400     21.55949900      1.10722000   
   130       C          1.10722000     23.66562400     21.55949900   
   131       C         21.55949900      1.10722000     23.66562400   
   132       C         11.63062400     14.54550100     22.96278000   
   133       C         14.54550100     22.96278000     11.63062400   
   134       C          7.12472000      8.52800100     17.64812400   
   135       C          5.61312400      4.91028000     15.54199900   
   136       C         17.64812400      7.12472000      8.52800100   
   137       C         15.54199900      5.61312400      4.91028000   
   138       C          8.52800100     17.64812400      7.12472000   
   139       C          4.91028000     15.54199900      5.61312400   
   140       C          0.40437600      9.52449900     10.92778000   
   141       C          2.51050100     13.14222000     12.43937600   
   142       C         13.14222000     12.43937600      2.51050100   
   143       C          9.52449900     10.92778000      0.40437600   
   144       C         12.43937600      2.51050100     13.14222000   
   145       C         16.54812500     19.02011400     20.18991600   
   146       C         13.00261400     22.56562500      9.89758400   
   147       C          3.88008400      4.51312500     17.08488600   
   148       C         17.08488600      3.88008400      4.51312500   
   149       C         20.18991600     16.54812500     19.02011400   
   150       C         19.02011400     20.18991600     16.54812500   
   151       C          4.51312500     17.08488600      3.88008400   
   152       C          0.96761400     13.53937500     14.17241600   
   153       C          1.50437500     21.93258400     23.10238600   
   154       C         23.10238600      1.50437500     21.93258400   
   155       C         21.93258400     23.10238600      1.50437500   
   156       C         13.53937500     14.17241600      0.96761400   
   157       C         14.17241600      0.96761400     13.53937500   
   158       C          5.04988600      8.15491600     19.55687500   
   159       C          7.52187500      6.98511400     15.91508400   
   160       C         19.55687500      5.04988600      8.15491600   
   161       C         15.91508400      7.52187500      6.98511400   
   162       C          8.15491600     19.55687500      5.04988600   
   163       C          6.98511400     15.91508400      7.52187500   
   164       C         22.56562500      9.89758400     13.00261400   
   165       C          2.13741600     11.06738600     10.53062500   
   166       C         11.06738600     10.53062500      2.13741600   
   167       C          9.89758400     13.00261400     22.56562500   
   168       C         10.53062500      2.13741600     11.06738600   
   169       C         23.22514300     21.99035200     23.90873100   
   170       C         15.97285200      5.17264300      6.17876900   
   171       C          0.16126900     11.19014300     14.11464800   
   172       C         14.11464800      0.16126900     11.19014300   
   173       C         23.90873100     23.22514300     21.99035200   
   174       C         21.99035200     23.90873100     23.22514300   
   175       C         11.19014300     14.11464800      0.16126900   
   176       C          3.93785200      6.86235700     17.89123100   
   177       C         18.89735700     18.21376900     20.13214800   
   178       C         20.13214800     18.89735700     18.21376900   
   179       C         18.21376900     20.13214800     18.89735700   
   180       C          6.86235700     17.89123100      3.93785200   
   181       C         17.89123100      3.93785200      6.86235700   
   182       C          2.07964800     11.87373100     12.87985700   
   183       C          0.84485700      9.95535200     12.19626900   
   184       C         12.87985700      2.07964800     11.87373100   
   185       C         12.19626900      0.84485700      9.95535200   
   186       C         11.87373100     12.87985700      2.07964800   
   187       C          9.95535200     12.19626900      0.84485700   
   188       C          5.17264300      6.17876900     15.97285200   
   189       C          5.85623100      8.09714800     17.20764300   
   190       C          8.09714800     17.20764300      5.85623100   
   191       C          6.17876900     15.97285200      5.17264300   
   192       C         17.20764300      5.85623100      8.09714800   
   193       C         17.16672400     16.79123200     21.00829600   
   194       C         10.77373200     23.18422400      9.07920400   
   195       C          3.06170400      5.13172400     19.31376800   
   196       C         19.31376800      3.06170400      5.13172400   
   197       C         21.00829600     17.16672400     16.79123200   
   198       C         16.79123200     21.00829600     17.16672400   
   199       C          5.13172400     19.31376800      3.06170400   
   200       C         22.80873200     12.92077600     14.99079600   
   201       C          0.88577600     21.11420400      1.26126800   
   202       C          1.26126800      0.88577600     21.11420400   
   203       C         21.11420400      1.26126800      0.88577600   
   204       C         12.92077600     14.99079600     22.80873200   
   205       C         14.99079600     22.80873200     12.92077600   
   206       C          7.27876800      8.97329600     18.93827600   
   207       C          6.90327600      4.75623200     15.09670400   
   208       C         18.93827600      7.27876800      8.97329600   
   209       C         15.09670400      6.90327600      4.75623200   
   210       C          8.97329600     18.93827600      7.27876800   
   211       C          4.75623200     15.09670400      6.90327600   
   212       C         23.18422400      9.07920400     10.77373200   
   213       C          2.95579600     13.29626800     11.14922400   
   214       C         13.29626800     11.14922400      2.95579600   
   215       C          9.07920400     10.77373200     23.18422400   
   216       C         11.14922400      2.95579600     13.29626800   
   217       C         16.16300500     17.81420700     20.72908400   
   218       C         11.79670700     22.18050500      9.35841600   
   219       C          3.34091600      4.12800500     18.29079300   
   220       C         18.29079300      3.34091600      4.12800500   
   221       C         20.72908400     16.16300500     17.81420700   
   222       C         17.81420700     20.72908400     16.16300500   
   223       C          4.12800500     18.29079300      3.34091600   
   224       C         23.83170700     13.92449500     14.71158400   
   225       C          1.88949500     21.39341600      0.23829300   
   226       C          0.23829300      1.88949500     21.39341600   
   227       C         21.39341600      0.23829300      1.88949500   
   228       C         13.92449500     14.71158400     23.83170700   
   229       C         14.71158400     23.83170700     13.92449500   
   230       C          6.25579300      8.69408400     19.94199500   
   231       C          7.90699500      5.77920700     15.37591600   
   232       C         19.94199500      6.25579300      8.69408400   
   233       C         15.37591600      7.90699500      5.77920700   
   234       C          8.69408400     19.94199500      6.25579300   
   235       C          5.77920700     15.37591600      7.90699500   
   236       C         22.18050500      9.35841600     11.79670700   
   237       C          2.67658400     12.27329300     10.14550500   
   238       C         12.27329300     10.14550500      2.67658400   
   239       C          9.35841600     11.79670700     22.18050500   
   240       C         10.14550500      2.67658400     12.27329300   
   241       C         19.29932600     15.89101400     20.03346100   
   242       C          9.87351400      1.24682600     10.05403900   
   243       C          4.03653900      7.26432600     20.21398600   
   244       C         20.21398600      4.03653900      7.26432600   
   245       C         20.03346100     19.29932600     15.89101400   
   246       C         15.89101400     20.03346100     19.29932600   
   247       C          7.26432600     20.21398600      4.03653900   
   248       C         21.90851400     10.78817400     14.01596100   
   249       C         22.82317400     22.08903900      2.16148600   
   250       C          2.16148600     22.82317400     22.08903900   
   251       C         22.08903900      2.16148600     22.82317400   
   252       C         10.78817400     14.01596100     21.90851400   
   253       C         14.01596100     21.90851400     10.78817400   
   254       C          8.17898600      7.99846100     16.80567400   
   255       C          4.77067400      3.85601400     16.07153900   
   256       C         16.80567400      8.17898600      7.99846100   
   257       C         16.07153900      4.77067400      3.85601400   
   258       C          7.99846100     16.80567400      8.17898600   
   259       C          3.85601400     16.07153900      4.77067400   
   260       C          1.24682600     10.05403900      9.87351400   
   261       C          1.98096100     14.19648600     13.28182600   
   262       C         14.19648600     13.28182600      1.98096100   
   263       C         10.05403900      9.87351400      1.24682600   
   264       C         13.28182600      1.98096100     14.19648600   
   265       C         16.88029100     15.47701000     21.48728900   
   266       C          9.45951000     22.89779100      8.60021100   
   267       C          2.58271100      4.84529100     20.62799000   
   268       C         20.62799000      2.58271100      4.84529100   
   269       C         21.48728900     16.88029100     15.47701000   
   270       C         15.47701000     21.48728900     16.88029100   
   271       C          4.84529100     20.62799000      2.58271100   
   272       C         21.49451000     13.20720900     15.46978900   
   273       C          1.17220900     20.63521100      2.57549000   
   274       C          2.57549000      1.17220900     20.63521100   
   275       C         20.63521100      2.57549000      1.17220900   
   276       C         13.20720900     15.46978900     21.49451000   
   277       C         15.46978900     21.49451000     13.20720900   
   278       C          8.59299000      9.45228900     19.22470900   
   279       C          7.18970900      3.44201000     14.61771100   
   280       C         19.22470900      8.59299000      9.45228900   
   281       C         14.61771100      7.18970900      3.44201000   
   282       C          9.45228900     19.22470900      8.59299000   
   283       C          3.44201000     14.61771100      7.18970900   
   284       C         22.89779100      8.60021100      9.45951000   
   285       C          3.43478900     14.61049000     10.86279100   
   286       C         14.61049000     10.86279100      3.43478900   
   287       C          8.60021100      9.45951000     22.89779100   
   288       C         10.86279100      3.43478900     14.61049000   
   289       H         13.45031600     21.59801100     17.55184400   
   290       H         15.58051100     19.46781600     12.53565600   
   291       H          6.51815600      1.41531600     14.50698900   
   292       H         14.50698900      6.51815600      1.41531600   
   293       H         17.55184400     13.45031600     21.59801100   
   294       H         21.59801100     17.55184400     13.45031600   
   295       H          1.41531600     14.50698900      6.51815600   
   296       H          3.54551100     16.63718400     11.53434400   
   297       H          4.60218400      0.50065600     20.52448900   
   298       H         20.52448900      4.60218400      0.50065600   
   299       H          0.50065600     20.52448900      4.60218400   
   300       H         16.63718400     11.53434400      3.54551100   
   301       H         11.53434400      3.54551100     16.63718400   
   302       H          2.47198900      5.51684400     22.65468400   
   303       H         10.61968400      9.56301100     18.55315600   
   304       H         22.65468400      2.47198900      5.51684400   
   305       H         18.55315600     10.61968400      9.56301100   
   306       H          5.51684400     22.65468400      2.47198900   
   307       H          9.56301100     18.55315600     10.61968400   
   308       H         19.46781600     12.53565600     15.58051100   
   309       H         23.56934400      8.48948900      7.43281600   
   310       H          8.48948900      7.43281600     23.56934400   
   311       H         12.53565600     15.58051100     19.46781600   
   312       H          7.43281600     23.56934400      8.48948900   
   313       H         13.74878400     20.12733400     19.49910700   
   314       H         14.10983400     19.76628400     10.58839300   
   315       H          4.57089300      1.71378400     15.97766600   
   316       H         15.97766600      4.57089300      1.71378400   
   317       H         19.49910700     13.74878400     20.12733400   
   318       H         20.12733400     19.49910700     13.74878400   
   319       H          1.71378400     15.97766600      4.57089300   
   320       H          2.07483400     16.33871600     13.48160700   
   321       H          4.30371600     22.62339300     21.99516600   
   322       H         21.99516600      4.30371600     22.62339300   
   323       H         22.62339300     21.99516600      4.30371600   
   324       H         16.33871600     13.48160700      2.07483400   
   325       H         13.48160700      2.07483400     16.33871600   
   326       H          3.94266600      7.46410700     22.35621600   
   327       H         10.32121600      8.09233400     16.60589300   
   328       H         22.35621600      3.94266600      7.46410700   
   329       H         16.60589300     10.32121600      8.09233400   
   330       H          7.46410700     22.35621600      3.94266600   
   331       H          8.09233400     16.60589300     10.32121600   
   332       H         19.76628400     10.58839300     14.10983400   
   333       H          1.44660700      9.96016600      7.73128400   
   334       H          9.96016600      7.73128400      1.44660700   
   335       H         10.58839300     14.10983400     19.76628400   
   336       H          7.73128400      1.44660700      9.96016600   
   337       H         14.00392600     17.89845200     20.33674300   
   338       H         11.88095200     20.02142600      9.75075700   
   339       H          3.73325700      1.96892600     18.20654800   
   340       H         18.20654800      3.73325700      1.96892600   
   341       H         20.33674300     14.00392600     17.89845200   
   342       H         17.89845200     20.33674300     14.00392600   
   343       H          1.96892600     18.20654800      3.73325700   
   344       H         23.91595200     16.08357400     14.31924300   
   345       H          4.04857400     21.78575700      0.15404800   
   346       H          0.15404800      4.04857400     21.78575700   
   347       H         21.78575700      0.15404800      4.04857400   
   348       H         16.08357400     14.31924300     23.91595200   
   349       H         14.31924300     23.91595200     16.08357400   
   350       H          6.17154800      8.30174300     22.10107400   
   351       H         10.06607400      5.86345200     15.76825700   
   352       H         22.10107400      6.17154800      8.30174300   
   353       H         15.76825700     10.06607400      5.86345200   
   354       H          8.30174300     22.10107400      6.17154800   
   355       H          5.86345200     15.76825700     10.06607400   
   356       H         20.02142600      9.75075700     11.88095200   
   357       H          2.28424300     12.18904800      7.98642600   
   358       H         12.18904800      7.98642600      2.28424300   
   359       H          9.75075700     11.88095200     20.02142600   
   360       H          7.98642600      2.28424300     12.18904800   
   361      Tv         24.07000000      0.00000000      0.00000000   
   362      Tv          0.00000000     24.07000000      0.00000000   
   363      Tv          0.00000000      0.00000000     24.07000000   


                   THE SYSTEM IS A SOLID


                UNIT CELL TRANSLATION VECTORS

              X                Y              Z
    T1 =    24.0700000      0.0000000      0.0000000
    T2 =     0.0000000     24.0700000      0.0000000
    T3 =     0.0000000      0.0000000     24.0700000


          CARTESIAN COORDINATES 

    NO.       ATOM           X           Y           Z

     1         N         15.5588     15.3831     22.1420
     2         N          9.3656     21.5763      7.9455
     3         N          1.9280      3.5238     20.7219
     4         N         20.7219      1.9280      3.5238
     5         N         22.1420     15.5588     15.3831
     6         N         15.3831     22.1420     15.5588
     7         N          3.5238     20.7219      1.9280
     8         N         21.4006     14.5287     16.1245
     9         N          2.4937     19.9805      2.6694
    10         N          2.6694      2.4937     19.9805
    11         N         19.9805      2.6694      2.4937
    12         N         14.5287     16.1245     21.4006
    13         N         16.1245     21.4006     14.5287
    14         N          8.6869     10.1070     20.5462
    15         N          8.5112      3.3481     13.9630
    16         N         20.5462      8.6869     10.1070
    17         N         13.9630      8.5112      3.3481
    18         N         10.1070     20.5462      8.6869
    19         N          3.3481     13.9630      8.5112
    20         N         21.5763      7.9455      9.3656
    21         N          4.0895     14.7044      9.5413
    22         N         14.7044      9.5413      4.0895
    23         N          7.9455      9.3656     21.5763
    24         N          9.5413      4.0895     14.7044
    25         C         17.7661     14.4613     21.2297
    26         C          8.4438     23.7836      8.8578
    27         C          2.8403      5.7311     21.6437
    28         C         21.6437      2.8403      5.7311
    29         C         21.2297     17.7661     14.4613
    30         C         14.4613     21.2297     17.7661
    31         C          5.7311     21.6437      2.8403
    32         C         20.4788     12.3214     15.2122
    33         C          0.2864     20.8928      3.5912
    34         C          3.5912      0.2864     20.8928
    35         C         20.8928      3.5912      0.2864
    36         C         12.3214     15.2122     20.4788
    37         C         15.2122     20.4788     12.3214
    38         C          9.6087      9.1947     18.3389
    39         C          6.3039      2.4263     14.8753
    40         C         18.3389      9.6087      9.1947
    41         C         14.8753      6.3039      2.4263
    42         C          9.1947     18.3389      9.6087
    43         C          2.4263     14.8753      6.3039
    44         C         23.7836      8.8578      8.4438
    45         C          3.1772     15.6262     11.7486
    46         C         15.6262     11.7486      3.1772
    47         C          8.8578      8.4438     23.7836
    48         C         11.7486      3.1772     15.6262
    49         C         18.9407     14.6370     20.4210
    50         C          8.6195      0.8882      9.6665
    51         C          3.6490      6.9057     21.4680
    52         C         21.4680      3.6490      6.9057
    53         C         20.4210     18.9407     14.6370
    54         C         14.6370     20.4210     18.9407
    55         C          6.9057     21.4680      3.6490
    56         C         20.6545     11.1468     14.4035
    57         C         23.1818     21.7015      3.4155
    58         C          3.4155     23.1818     21.7015
    59         C         21.7015      3.4155     23.1818
    60         C         11.1468     14.4035     20.6545
    61         C         14.4035     20.6545     11.1468
    62         C          9.4330      8.3860     17.1643
    63         C          5.1293      2.6020     15.6840
    64         C         17.1643      9.4330      8.3860
    65         C         15.6840      5.1293      2.6020
    66         C          8.3860     17.1643      9.4330
    67         C          2.6020     15.6840      5.1293
    68         C          0.8882      9.6665      8.6195
    69         C          2.3685     15.4505     12.9232
    70         C         15.4505     12.9232      2.3685
    71         C          9.6665      8.6195      0.8882
    72         C         12.9232      2.3685     15.4505
    73         C         14.7934     17.3039     20.8133
    74         C         11.2864     20.8109      9.2742
    75         C          3.2567      2.7584     18.8011
    76         C         18.8011      3.2567      2.7584
    77         C         20.8133     14.7934     17.3039
    78         C         17.3039     20.8133     14.7934
    79         C          2.7584     18.8011      3.2567
    80         C         23.3214     15.2941     14.7958
    81         C          3.2591     21.3092      0.7486
    82         C          0.7486      3.2591     21.3092
    83         C         21.3092      0.7486      3.2591
    84         C         15.2941     14.7958     23.3214
    85         C         14.7958     23.3214     15.2941
    86         C          6.7661      8.7783     21.3116
    87         C          9.2766      5.2689     15.2917
    88         C         21.3116      6.7661      8.7783
    89         C         15.2917      9.2766      5.2689
    90         C          8.7783     21.3116      6.7661
    91         C          5.2689     15.2917      9.2766
    92         C         20.8109      9.2742     11.2864
    93         C          2.7608     12.7836      8.7759
    94         C         12.7836      8.7759      2.7608
    95         C          9.2742     11.2864     20.8109
    96         C          8.7759      2.7608     12.7836
    97         C         19.2175     19.9805     17.9851
    98         C         13.9630      1.1650     12.1024
    99         C          6.0849      7.1825     16.1245
   100         C         16.1245      6.0849      7.1825
   101         C         17.9851     19.2175     19.9805
   102         C         19.9805     17.9851     19.2175
   103         C          7.1825     16.1245      6.0849
   104         C          1.9280     10.8700     11.9676
   105         C         22.9050      0.0674     22.1420
   106         C         22.1420     22.9050      0.0674
   107         C          0.0674     22.1420     22.9050
   108         C         10.8700     11.9676      1.9280
   109         C         11.9676      1.9280     10.8700
   110         C          4.0895      5.9501     16.8875
   111         C          4.8525      7.9455     18.1199
   112         C         16.8875      4.0895      5.9501
   113         C         18.1199      4.8525      7.9455
   114         C          5.9501     16.8875      4.0895
   115         C          7.9455     18.1199      4.8525
   116         C          1.1650     12.1024     13.9630
   117         C         24.0026     10.1070     13.2000
   118         C         10.1070     13.2000     24.0026
   119         C         12.1024     13.9630      1.1650
   120         C         13.2000     24.0026     10.1070
   121         C         18.4569     16.9453     20.5630
   122         C         10.9278      0.4044      9.5245
   123         C          3.5070      6.4219     19.1597
   124         C         19.1597      3.5070      6.4219
   125         C         20.5630     18.4569     16.9453
   126         C         16.9453     20.5630     18.4569
   127         C          6.4219     19.1597      3.5070
   128         C         22.9628     11.6306     14.5455
   129         C         23.6656     21.5595      1.1072
   130         C          1.1072     23.6656     21.5595
   131         C         21.5595      1.1072     23.6656
   132         C         11.6306     14.5455     22.9628
   133         C         14.5455     22.9628     11.6306
   134         C          7.1247      8.5280     17.6481
   135         C          5.6131      4.9103     15.5420
   136         C         17.6481      7.1247      8.5280
   137         C         15.5420      5.6131      4.9103
   138         C          8.5280     17.6481      7.1247
   139         C          4.9103     15.5420      5.6131
   140         C          0.4044      9.5245     10.9278
   141         C          2.5105     13.1422     12.4394
   142         C         13.1422     12.4394      2.5105
   143         C          9.5245     10.9278      0.4044
   144         C         12.4394      2.5105     13.1422
   145         C         16.5481     19.0201     20.1899
   146         C         13.0026     22.5656      9.8976
   147         C          3.8801      4.5131     17.0849
   148         C         17.0849      3.8801      4.5131
   149         C         20.1899     16.5481     19.0201
   150         C         19.0201     20.1899     16.5481
   151         C          4.5131     17.0849      3.8801
   152         C          0.9676     13.5394     14.1724
   153         C          1.5044     21.9326     23.1024
   154         C         23.1024      1.5044     21.9326
   155         C         21.9326     23.1024      1.5044
   156         C         13.5394     14.1724      0.9676
   157         C         14.1724      0.9676     13.5394
   158         C          5.0499      8.1549     19.5569
   159         C          7.5219      6.9851     15.9151
   160         C         19.5569      5.0499      8.1549
   161         C         15.9151      7.5219      6.9851
   162         C          8.1549     19.5569      5.0499
   163         C          6.9851     15.9151      7.5219
   164         C         22.5656      9.8976     13.0026
   165         C          2.1374     11.0674     10.5306
   166         C         11.0674     10.5306      2.1374
   167         C          9.8976     13.0026     22.5656
   168         C         10.5306      2.1374     11.0674
   169         C         23.2251     21.9904     23.9087
   170         C         15.9729      5.1726      6.1788
   171         C          0.1613     11.1901     14.1146
   172         C         14.1146      0.1613     11.1901
   173         C         23.9087     23.2251     21.9904
   174         C         21.9904     23.9087     23.2251
   175         C         11.1901     14.1146      0.1613
   176         C          3.9379      6.8624     17.8912
   177         C         18.8974     18.2138     20.1321
   178         C         20.1321     18.8974     18.2138
   179         C         18.2138     20.1321     18.8974
   180         C          6.8624     17.8912      3.9379
   181         C         17.8912      3.9379      6.8624
   182         C          2.0796     11.8737     12.8799
   183         C          0.8449      9.9554     12.1963
   184         C         12.8799      2.0796     11.8737
   185         C         12.1963      0.8449      9.9554
   186         C         11.8737     12.8799      2.0796
   187         C          9.9554     12.1963      0.8449
   188         C          5.1726      6.1788     15.9729
   189         C          5.8562      8.0971     17.2076
   190         C          8.0971     17.2076      5.8562
   191         C          6.1788     15.9729      5.1726
   192         C         17.2076      5.8562      8.0971
   193         C         17.1667     16.7912     21.0083
   194         C         10.7737     23.1842      9.0792
   195         C          3.0617      5.1317     19.3138
   196         C         19.3138      3.0617      5.1317
   197         C         21.0083     17.1667     16.7912
   198         C         16.7912     21.0083     17.1667
   199         C          5.1317     19.3138      3.0617
   200         C         22.8087     12.9208     14.9908
   201         C          0.8858     21.1142      1.2613
   202         C          1.2613      0.8858     21.1142
   203         C         21.1142      1.2613      0.8858
   204         C         12.9208     14.9908     22.8087
   205         C         14.9908     22.8087     12.9208
   206         C          7.2788      8.9733     18.9383
   207         C          6.9033      4.7562     15.0967
   208         C         18.9383      7.2788      8.9733
   209         C         15.0967      6.9033      4.7562
   210         C          8.9733     18.9383      7.2788
   211         C          4.7562     15.0967      6.9033
   212         C         23.1842      9.0792     10.7737
   213         C          2.9558     13.2963     11.1492
   214         C         13.2963     11.1492      2.9558
   215         C          9.0792     10.7737     23.1842
   216         C         11.1492      2.9558     13.2963
   217         C         16.1630     17.8142     20.7291
   218         C         11.7967     22.1805      9.3584
   219         C          3.3409      4.1280     18.2908
   220         C         18.2908      3.3409      4.1280
   221         C         20.7291     16.1630     17.8142
   222         C         17.8142     20.7291     16.1630
   223         C          4.1280     18.2908      3.3409
   224         C         23.8317     13.9245     14.7116
   225         C          1.8895     21.3934      0.2383
   226         C          0.2383      1.8895     21.3934
   227         C         21.3934      0.2383      1.8895
   228         C         13.9245     14.7116     23.8317
   229         C         14.7116     23.8317     13.9245
   230         C          6.2558      8.6941     19.9420
   231         C          7.9070      5.7792     15.3759
   232         C         19.9420      6.2558      8.6941
   233         C         15.3759      7.9070      5.7792
   234         C          8.6941     19.9420      6.2558
   235         C          5.7792     15.3759      7.9070
   236         C         22.1805      9.3584     11.7967
   237         C          2.6766     12.2733     10.1455
   238         C         12.2733     10.1455      2.6766
   239         C          9.3584     11.7967     22.1805
   240         C         10.1455      2.6766     12.2733
   241         C         19.2993     15.8910     20.0335
   242         C          9.8735      1.2468     10.0540
   243         C          4.0365      7.2643     20.2140
   244         C         20.2140      4.0365      7.2643
   245         C         20.0335     19.2993     15.8910
   246         C         15.8910     20.0335     19.2993
   247         C          7.2643     20.2140      4.0365
   248         C         21.9085     10.7882     14.0160
   249         C         22.8232     22.0890      2.1615
   250         C          2.1615     22.8232     22.0890
   251         C         22.0890      2.1615     22.8232
   252         C         10.7882     14.0160     21.9085
   253         C         14.0160     21.9085     10.7882
   254         C          8.1790      7.9985     16.8057
   255         C          4.7707      3.8560     16.0715
   256         C         16.8057      8.1790      7.9985
   257         C         16.0715      4.7707      3.8560
   258         C          7.9985     16.8057      8.1790
   259         C          3.8560     16.0715      4.7707
   260         C          1.2468     10.0540      9.8735
   261         C          1.9810     14.1965     13.2818
   262         C         14.1965     13.2818      1.9810
   263         C         10.0540      9.8735      1.2468
   264         C         13.2818      1.9810     14.1965
   265         C         16.8803     15.4770     21.4873
   266         C          9.4595     22.8978      8.6002
   267         C          2.5827      4.8453     20.6280
   268         C         20.6280      2.5827      4.8453
   269         C         21.4873     16.8803     15.4770
   270         C         15.4770     21.4873     16.8803
   271         C          4.8453     20.6280      2.5827
   272         C         21.4945     13.2072     15.4698
   273         C          1.1722     20.6352      2.5755
   274         C          2.5755      1.1722     20.6352
   275         C         20.6352      2.5755      1.1722
   276         C         13.2072     15.4698     21.4945
   277         C         15.4698     21.4945     13.2072
   278         C          8.5930      9.4523     19.2247
   279         C          7.1897      3.4420     14.6177
   280         C         19.2247      8.5930      9.4523
   281         C         14.6177      7.1897      3.4420
   282         C          9.4523     19.2247      8.5930
   283         C          3.4420     14.6177      7.1897
   284         C         22.8978      8.6002      9.4595
   285         C          3.4348     14.6105     10.8628
   286         C         14.6105     10.8628      3.4348
   287         C          8.6002      9.4595     22.8978
   288         C         10.8628      3.4348     14.6105
   289         H         13.4503     21.5980     17.5518
   290         H         15.5805     19.4678     12.5357
   291         H          6.5182      1.4153     14.5070
   292         H         14.5070      6.5182      1.4153
   293         H         17.5518     13.4503     21.5980
   294         H         21.5980     17.5518     13.4503
   295         H          1.4153     14.5070      6.5182
   296         H          3.5455     16.6372     11.5343
   297         H          4.6022      0.5007     20.5245
   298         H         20.5245      4.6022      0.5007
   299         H          0.5007     20.5245      4.6022
   300         H         16.6372     11.5343      3.5455
   301         H         11.5343      3.5455     16.6372
   302         H          2.4720      5.5168     22.6547
   303         H         10.6197      9.5630     18.5532
   304         H         22.6547      2.4720      5.5168
   305         H         18.5532     10.6197      9.5630
   306         H          5.5168     22.6547      2.4720
   307         H          9.5630     18.5532     10.6197
   308         H         19.4678     12.5357     15.5805
   309         H         23.5693      8.4895      7.4328
   310         H          8.4895      7.4328     23.5693
   311         H         12.5357     15.5805     19.4678
   312         H          7.4328     23.5693      8.4895
   313         H         13.7488     20.1273     19.4991
   314         H         14.1098     19.7663     10.5884
   315         H          4.5709      1.7138     15.9777
   316         H         15.9777      4.5709      1.7138
   317         H         19.4991     13.7488     20.1273
   318         H         20.1273     19.4991     13.7488
   319         H          1.7138     15.9777      4.5709
   320         H          2.0748     16.3387     13.4816
   321         H          4.3037     22.6234     21.9952
   322         H         21.9952      4.3037     22.6234
   323         H         22.6234     21.9952      4.3037
   324         H         16.3387     13.4816      2.0748
   325         H         13.4816      2.0748     16.3387
   326         H          3.9427      7.4641     22.3562
   327         H         10.3212      8.0923     16.6059
   328         H         22.3562      3.9427      7.4641
   329         H         16.6059     10.3212      8.0923
   330         H          7.4641     22.3562      3.9427
   331         H          8.0923     16.6059     10.3212
   332         H         19.7663     10.5884     14.1098
   333         H          1.4466      9.9602      7.7313
   334         H          9.9602      7.7313      1.4466
   335         H         10.5884     14.1098     19.7663
   336         H          7.7313      1.4466      9.9602
   337         H         14.0039     17.8985     20.3367
   338         H         11.8810     20.0214      9.7508
   339         H          3.7333      1.9689     18.2065
   340         H         18.2065      3.7333      1.9689
   341         H         20.3367     14.0039     17.8985
   342         H         17.8985     20.3367     14.0039
   343         H          1.9689     18.2065      3.7333
   344         H         23.9160     16.0836     14.3192
   345         H          4.0486     21.7858      0.1540
   346         H          0.1540      4.0486     21.7858
   347         H         21.7858      0.1540      4.0486
   348         H         16.0836     14.3192     23.9160
   349         H         14.3192     23.9160     16.0836
   350         H          6.1715      8.3017     22.1011
   351         H         10.0661      5.8635     15.7683
   352         H         22.1011      6.1715      8.3017
   353         H         15.7683     10.0661      5.8635
   354         H          8.3017     22.1011      6.1715
   355         H          5.8635     15.7683     10.0661
   356         H         20.0214      9.7508     11.8810
   357         H          2.2842     12.1890      7.9864
   358         H         12.1890      7.9864      2.2842
   359         H          9.7508     11.8810     20.0214
   360         H          7.9864      2.2842     12.1890

 General Reference for PM7:
 "Optimization of Parameters for Semiempirical Methods VI: More Modifications to the 
 NDDO Approximations and Re-optimization of Parameters", J. J. P. Stewart, J. Mol. Mod., 1:32, 19 (2013)
 https://link.springer.com/article/10.1007/s00894-012-1667-x

           Empirical Formula: C264 H72 N24  =   360 atoms



      RHF CALCULATION, NO. OF DOUBLY OCCUPIED LEVELS = 624


 -------------------------------------------------------------------------------
 PM7 CHARGE=0 NOOPT




     NO PARAMETERS MARKED FOR OPTIMIZATION, SO 1SCF WAS USED  
     SCF FIELD WAS ACHIEVED                                   


                              PM7 CALCULATION
                                                       MOPAC v22.1.0 Linux
                                                       Wed Jan 31 13:45:51 2024




          FINAL HEAT OF FORMATION =       3695.15237 KCAL/MOL =   15460.51754 KJ/MOL
          H.o.F. per unit cell    =        153.96468 KCAL, for 24 unit cells, unit cell = C11 H3 N1



          IONIZATION POTENTIAL    =          6.347029 EV
          HOMO LUMO ENERGIES (EV) =         -6.347 -2.478
          NO. OF FILLED LEVELS    =        624
          MOLECULAR WEIGHT        =       3579.6336

                   THE SYSTEM IS A SOLID


                UNIT CELL TRANSLATION VECTORS

              X                Y              Z
    T1 =    24.0700000      0.0000000      0.0000000
    T2 =     0.0000000     24.0700000      0.0000000
    T3 =     0.0000000      0.0000000     24.0700000

          VOLUME OF UNIT CELL     =      13945.313 CUBIC ANGSTROMS

          DENSITY                 =          0.426 GRAMS/CC
                              A   =         24.070 ANGSTROMS
                              B   =         24.070 ANGSTROMS
                              C   =         24.070 ANGSTROMS
                            ALPHA =         90.000 DEGREES
                            BETA  =         90.000 DEGREES
                            GAMMA =         90.000 DEGREES



          SCF CALCULATIONS        =          1

          WALL-CLOCK TIME         =          1 MINUTE AND 38.410 SECONDS
          COMPUTATION TIME        =          1 MINUTE AND 38.397 SECONDS




   ATOM   CHEMICAL          X               Y               Z
  NUMBER   SYMBOL      (ANGSTROMS)     (ANGSTROMS)     (ANGSTROMS)

     1       N         15.55884800     15.38313700     22.14199300   
     2       N          9.36563700     21.57634800      7.94550700   
     3       N          1.92800700      3.52384800     20.72186300   
     4       N         20.72186300      1.92800700      3.52384800   
     5       N         22.14199300     15.55884800     15.38313700   
     6       N         15.38313700     22.14199300     15.55884800   
     7       N          3.52384800     20.72186300      1.92800700   
     8       N         21.40063700     14.52865200     16.12449300   
     9       N          2.49365200     19.98050700      2.66936300   
    10       N          2.66936300      2.49365200     19.98050700   
    11       N         19.98050700      2.66936300      2.49365200   
    12       N         14.52865200     16.12449300     21.40063700   
    13       N         16.12449300     21.40063700     14.52865200   
    14       N          8.68686300     10.10699300     20.54615200   
    15       N          8.51115200      3.34813700     13.96300700   
    16       N         20.54615200      8.68686300     10.10699300   
    17       N         13.96300700      8.51115200      3.34813700   
    18       N         10.10699300     20.54615200      8.68686300   
    19       N          3.34813700     13.96300700      8.51115200   
    20       N         21.57634800      7.94550700      9.36563700   
    21       N          4.08949300     14.70436300      9.54134800   
    22       N         14.70436300      9.54134800      4.08949300   
    23       N          7.94550700      9.36563700     21.57634800   
    24       N          9.54134800      4.08949300     14.70436300   
    25       C         17.76606700     14.46125600     21.22974000   
    26       C          8.44375600     23.78356700      8.85776000   
    27       C          2.84026000      5.73106700     21.64374400   
    28       C         21.64374400      2.84026000      5.73106700   
    29       C         21.22974000     17.76606700     14.46125600   
    30       C         14.46125600     21.22974000     17.76606700   
    31       C          5.73106700     21.64374400      2.84026000   
    32       C         20.47875600     12.32143300     15.21224000   
    33       C          0.28643300     20.89276000      3.59124400   
    34       C          3.59124400      0.28643300     20.89276000   
    35       C         20.89276000      3.59124400      0.28643300   
    36       C         12.32143300     15.21224000     20.47875600   
    37       C         15.21224000     20.47875600     12.32143300   
    38       C          9.60874400      9.19474000     18.33893300   
    39       C          6.30393300      2.42625600     14.87526000   
    40       C         18.33893300      9.60874400      9.19474000   
    41       C         14.87526000      6.30393300      2.42625600   
    42       C          9.19474000     18.33893300      9.60874400   
    43       C          2.42625600     14.87526000      6.30393300   
    44       C         23.78356700      8.85776000      8.44375600   
    45       C          3.17724000     15.62624400     11.74856700   
    46       C         15.62624400     11.74856700      3.17724000   
    47       C          8.85776000      8.44375600     23.78356700   
    48       C         11.74856700      3.17724000     15.62624400   
    49       C         18.94068300     14.63696700     20.42098800   
    50       C          8.61946700      0.88818300      9.66651200   
    51       C          3.64901200      6.90568300     21.46803300   
    52       C         21.46803300      3.64901200      6.90568300   
    53       C         20.42098800     18.94068300     14.63696700   
    54       C         14.63696700     20.42098800     18.94068300   
    55       C          6.90568300     21.46803300      3.64901200   
    56       C         20.65446700     11.14681700     14.40348800   
    57       C         23.18181700     21.70151200      3.41553300   
    58       C          3.41553300     23.18181700     21.70151200   
    59       C         21.70151200      3.41553300     23.18181700   
    60       C         11.14681700     14.40348800     20.65446700   
    61       C         14.40348800     20.65446700     11.14681700   
    62       C          9.43303300      8.38598800     17.16431700   
    63       C          5.12931700      2.60196700     15.68401200   
    64       C         17.16431700      9.43303300      8.38598800   
    65       C         15.68401200      5.12931700      2.60196700   
    66       C          8.38598800     17.16431700      9.43303300   
    67       C          2.60196700     15.68401200      5.12931700   
    68       C          0.88818300      9.66651200      8.61946700   
    69       C          2.36848800     15.45053300     12.92318300   
    70       C         15.45053300     12.92318300      2.36848800   
    71       C          9.66651200      8.61946700      0.88818300   
    72       C         12.92318300      2.36848800     15.45053300   
    73       C         14.79342200     17.30392300     20.81332900   
    74       C         11.28642300     20.81092200      9.27417100   
    75       C          3.25667100      2.75842200     18.80107700   
    76       C         18.80107700      3.25667100      2.75842200   
    77       C         20.81332900     14.79342200     17.30392300   
    78       C         17.30392300     20.81332900     14.79342200   
    79       C          2.75842200     18.80107700      3.25667100   
    80       C         23.32142300     15.29407800     14.79582900   
    81       C          3.25907800     21.30917100      0.74857700   
    82       C          0.74857700      3.25907800     21.30917100   
    83       C         21.30917100      0.74857700      3.25907800   
    84       C         15.29407800     14.79582900     23.32142300   
    85       C         14.79582900     23.32142300     15.29407800   
    86       C          6.76607700      8.77832900     21.31157800   
    87       C          9.27657800      5.26892300     15.29167100   
    88       C         21.31157800      6.76607700      8.77832900   
    89       C         15.29167100      9.27657800      5.26892300   
    90       C          8.77832900     21.31157800      6.76607700   
    91       C          5.26892300     15.29167100      9.27657800   
    92       C         20.81092200      9.27417100     11.28642300   
    93       C          2.76082900     12.78357700      8.77592200   
    94       C         12.78357700      8.77592200      2.76082900   
    95       C          9.27417100     11.28642300     20.81092200   
    96       C          8.77592200      2.76082900     12.78357700   
    97       C         19.21748800     19.98050700     17.98510400   
    98       C         13.96300700      1.16498800     12.10239600   
    99       C          6.08489600      7.18248800     16.12449300   
   100       C         16.12449300      6.08489600      7.18248800   
   101       C         17.98510400     19.21748800     19.98050700   
   102       C         19.98050700     17.98510400     19.21748800   
   103       C          7.18248800     16.12449300      6.08489600   
   104       C          1.92800700     10.87001200     11.96760400   
   105       C         22.90501200      0.06739600     22.14199300   
   106       C         22.14199300     22.90501200      0.06739600   
   107       C          0.06739600     22.14199300     22.90501200   
   108       C         10.87001200     11.96760400      1.92800700   
   109       C         11.96760400      1.92800700     10.87001200   
   110       C          4.08949300      5.95010400     16.88751200   
   111       C          4.85251200      7.94550700     18.11989600   
   112       C         16.88751200      4.08949300      5.95010400   
   113       C         18.11989600      4.85251200      7.94550700   
   114       C          5.95010400     16.88751200      4.08949300   
   115       C          7.94550700     18.11989600      4.85251200   
   116       C          1.16498800     12.10239600     13.96300700   
   117       C         24.00260400     10.10699300     13.19998800   
   118       C         10.10699300     13.19998800     24.00260400   
   119       C         12.10239600     13.96300700      1.16498800   
   120       C         13.19998800     24.00260400     10.10699300   
   121       C         18.45687600     16.94528000     20.56300100   
   122       C         10.92778000      0.40437600      9.52449900   
   123       C          3.50699900      6.42187600     19.15972000   
   124       C         19.15972000      3.50699900      6.42187600   
   125       C         20.56300100     18.45687600     16.94528000   
   126       C         16.94528000     20.56300100     18.45687600   
   127       C          6.42187600     19.15972000      3.50699900   
   128       C         22.96278000     11.63062400     14.54550100   
   129       C         23.66562400     21.55949900      1.10722000   
   130       C          1.10722000     23.66562400     21.55949900   
   131       C         21.55949900      1.10722000     23.66562400   
   132       C         11.63062400     14.54550100     22.96278000   
   133       C         14.54550100     22.96278000     11.63062400   
   134       C          7.12472000      8.52800100     17.64812400   
   135       C          5.61312400      4.91028000     15.54199900   
   136       C         17.64812400      7.12472000      8.52800100   
   137       C         15.54199900      5.61312400      4.91028000   
   138       C          8.52800100     17.64812400      7.12472000   
   139       C          4.91028000     15.54199900      5.61312400   
   140       C          0.40437600      9.52449900     10.92778000   
   141       C          2.51050100     13.14222000     12.43937600   
   142       C         13.14222000     12.43937600      2.51050100   
   143       C          9.52449900     10.92778000      0.40437600   
   144       C         12.43937600      2.51050100     13.14222000   
   145       C         16.54812500     19.02011400     20.18991600   
   146       C         13.00261400     22.56562500      9.89758400   
   147       C          3.88008400      4.51312500     17.08488600   
   148       C         17.08488600      3.88008400      4.51312500   
   149       C         20.18991600     16.54812500     19.02011400   
   150       C         19.02011400     20.18991600     16.54812500   
   151       C          4.51312500     17.08488600      3.88008400   
   152       C          0.96761400     13.53937500     14.17241600   
   153       C          1.50437500     21.93258400     23.10238600   
   154       C         23.10238600      1.50437500     21.93258400   
   155       C         21.93258400     23.10238600      1.50437500   
   156       C         13.53937500     14.17241600      0.96761400   
   157       C         14.17241600      0.96761400     13.53937500   
   158       C          5.04988600      8.15491600     19.55687500   
   159       C          7.52187500      6.98511400     15.91508400   
   160       C         19.55687500      5.04988600      8.15491600   
   161       C         15.91508400      7.52187500      6.98511400   
   162       C          8.15491600     19.55687500      5.04988600   
   163       C          6.98511400     15.91508400      7.52187500   
   164       C         22.56562500      9.89758400     13.00261400   
   165       C          2.13741600     11.06738600     10.53062500   
   166       C         11.06738600     10.53062500      2.13741600   
   167       C          9.89758400     13.00261400     22.56562500   
   168       C         10.53062500      2.13741600     11.06738600   
   169       C         23.22514300     21.99035200     23.90873100   
   170       C         15.97285200      5.17264300      6.17876900   
   171       C          0.16126900     11.19014300     14.11464800   
   172       C         14.11464800      0.16126900     11.19014300   
   173       C         23.90873100     23.22514300     21.99035200   
   174       C         21.99035200     23.90873100     23.22514300   
   175       C         11.19014300     14.11464800      0.16126900   
   176       C          3.93785200      6.86235700     17.89123100   
   177       C         18.89735700     18.21376900     20.13214800   
   178       C         20.13214800     18.89735700     18.21376900   
   179       C         18.21376900     20.13214800     18.89735700   
   180       C          6.86235700     17.89123100      3.93785200   
   181       C         17.89123100      3.93785200      6.86235700   
   182       C          2.07964800     11.87373100     12.87985700   
   183       C          0.84485700      9.95535200     12.19626900   
   184       C         12.87985700      2.07964800     11.87373100   
   185       C         12.19626900      0.84485700      9.95535200   
   186       C         11.87373100     12.87985700      2.07964800   
   187       C          9.95535200     12.19626900      0.84485700   
   188       C          5.17264300      6.17876900     15.97285200   
   189       C          5.85623100      8.09714800     17.20764300   
   190       C          8.09714800     17.20764300      5.85623100   
   191       C          6.17876900     15.97285200      5.17264300   
   192       C         17.20764300      5.85623100      8.09714800   
   193       C         17.16672400     16.79123200     21.00829600   
   194       C         10.77373200     23.18422400      9.07920400   
   195       C          3.06170400      5.13172400     19.31376800   
   196       C         19.31376800      3.06170400      5.13172400   
   197       C         21.00829600     17.16672400     16.79123200   
   198       C         16.79123200     21.00829600     17.16672400   
   199       C          5.13172400     19.31376800      3.06170400   
   200       C         22.80873200     12.92077600     14.99079600   
   201       C          0.88577600     21.11420400      1.26126800   
   202       C          1.26126800      0.88577600     21.11420400   
   203       C         21.11420400      1.26126800      0.88577600   
   204       C         12.92077600     14.99079600     22.80873200   
   205       C         14.99079600     22.80873200     12.92077600   
   206       C          7.27876800      8.97329600     18.93827600   
   207       C          6.90327600      4.75623200     15.09670400   
   208       C         18.93827600      7.27876800      8.97329600   
   209       C         15.09670400      6.90327600      4.75623200   
   210       C          8.97329600     18.93827600      7.27876800   
   211       C          4.75623200     15.09670400      6.90327600   
   212       C         23.18422400      9.07920400     10.77373200   
   213       C          2.95579600     13.29626800     11.14922400   
   214       C         13.29626800     11.14922400      2.95579600   
   215       C          9.07920400     10.77373200     23.18422400   
   216       C         11.14922400      2.95579600     13.29626800   
   217       C         16.16300500     17.81420700     20.72908400   
   218       C         11.79670700     22.18050500      9.35841600   
   219       C          3.34091600      4.12800500     18.29079300   
   220       C         18.29079300      3.34091600      4.12800500   
   221       C         20.72908400     16.16300500     17.81420700   
   222       C         17.81420700     20.72908400     16.16300500   
   223       C          4.12800500     18.29079300      3.34091600   
   224       C         23.83170700     13.92449500     14.71158400   
   225       C          1.88949500     21.39341600      0.23829300   
   226       C          0.23829300      1.88949500     21.39341600   
   227       C         21.39341600      0.23829300      1.88949500   
   228       C         13.92449500     14.71158400     23.83170700   
   229       C         14.71158400     23.83170700     13.92449500   
   230       C          6.25579300      8.69408400     19.94199500   
   231       C          7.90699500      5.77920700     15.37591600   
   232       C         19.94199500      6.25579300      8.69408400   
   233       C         15.37591600      7.90699500      5.77920700   
   234       C          8.69408400     19.94199500      6.25579300   
   235       C          5.77920700     15.37591600      7.90699500   
   236       C         22.18050500      9.35841600     11.79670700   
   237       C          2.67658400     12.27329300     10.14550500   
   238       C         12.27329300     10.14550500      2.67658400   
   239       C          9.35841600     11.79670700     22.18050500   
   240       C         10.14550500      2.67658400     12.27329300   
   241       C         19.29932600     15.89101400     20.03346100   
   242       C          9.87351400      1.24682600     10.05403900   
   243       C          4.03653900      7.26432600     20.21398600   
   244       C         20.21398600      4.03653900      7.26432600   
   245       C         20.03346100     19.29932600     15.89101400   
   246       C         15.89101400     20.03346100     19.29932600   
   247       C          7.26432600     20.21398600      4.03653900   
   248       C         21.90851400     10.78817400     14.01596100   
   249       C         22.82317400     22.08903900      2.16148600   
   250       C          2.16148600     22.82317400     22.08903900   
   251       C         22.08903900      2.16148600     22.82317400   
   252       C         10.78817400     14.01596100     21.90851400   
   253       C         14.01596100     21.90851400     10.78817400   
   254       C          8.17898600      7.99846100     16.80567400   
   255       C          4.77067400      3.85601400     16.07153900   
   256       C         16.80567400      8.17898600      7.99846100   
   257       C         16.07153900      4.77067400      3.85601400   
   258       C          7.99846100     16.80567400      8.17898600   
   259       C          3.85601400     16.07153900      4.77067400   
   260       C          1.24682600     10.05403900      9.87351400   
   261       C          1.98096100     14.19648600     13.28182600   
   262       C         14.19648600     13.28182600      1.98096100   
   263       C         10.05403900      9.87351400      1.24682600   
   264       C         13.28182600      1.98096100     14.19648600   
   265       C         16.88029100     15.47701000     21.48728900   
   266       C          9.45951000     22.89779100      8.60021100   
   267       C          2.58271100      4.84529100     20.62799000   
   268       C         20.62799000      2.58271100      4.84529100   
   269       C         21.48728900     16.88029100     15.47701000   
   270       C         15.47701000     21.48728900     16.88029100   
   271       C          4.84529100     20.62799000      2.58271100   
   272       C         21.49451000     13.20720900     15.46978900   
   273       C          1.17220900     20.63521100      2.57549000   
   274       C          2.57549000      1.17220900     20.63521100   
   275       C         20.63521100      2.57549000      1.17220900   
   276       C         13.20720900     15.46978900     21.49451000   
   277       C         15.46978900     21.49451000     13.20720900   
   278       C          8.59299000      9.45228900     19.22470900   
   279       C          7.18970900      3.44201000     14.61771100   
   280       C         19.22470900      8.59299000      9.45228900   
   281       C         14.61771100      7.18970900      3.44201000   
   282       C          9.45228900     19.22470900      8.59299000   
   283       C          3.44201000     14.61771100      7.18970900   
   284       C         22.89779100      8.60021100      9.45951000   
   285       C          3.43478900     14.61049000     10.86279100   
   286       C         14.61049000     10.86279100      3.43478900   
   287       C          8.60021100      9.45951000     22.89779100   
   288       C         10.86279100      3.43478900     14.61049000   
   289       H         13.45031600     21.59801100     17.55184400   
   290       H         15.58051100     19.46781600     12.53565600   
   291       H          6.51815600      1.41531600     14.50698900   
   292       H         14.50698900      6.51815600      1.41531600   
   293       H         17.55184400     13.45031600     21.59801100   
   294       H         21.59801100     17.55184400     13.45031600   
   295       H          1.41531600     14.50698900      6.51815600   
   296       H          3.54551100     16.63718400     11.53434400   
   297       H          4.60218400      0.50065600     20.52448900   
   298       H         20.52448900      4.60218400      0.50065600   
   299       H          0.50065600     20.52448900      4.60218400   
   300       H         16.63718400     11.53434400      3.54551100   
   301       H         11.53434400      3.54551100     16.63718400   
   302       H          2.47198900      5.51684400     22.65468400   
   303       H         10.61968400      9.56301100     18.55315600   
   304       H         22.65468400      2.47198900      5.51684400   
   305       H         18.55315600     10.61968400      9.56301100   
   306       H          5.51684400     22.65468400      2.47198900   
   307       H          9.56301100     18.55315600     10.61968400   
   308       H         19.46781600     12.53565600     15.58051100   
   309       H         23.56934400      8.48948900      7.43281600   
   310       H          8.48948900      7.43281600     23.56934400   
   311       H         12.53565600     15.58051100     19.46781600   
   312       H          7.43281600     23.56934400      8.48948900   
   313       H         13.74878400     20.12733400     19.49910700   
   314       H         14.10983400     19.76628400     10.58839300   
   315       H          4.57089300      1.71378400     15.97766600   
   316       H         15.97766600      4.57089300      1.71378400   
   317       H         19.49910700     13.74878400     20.12733400   
   318       H         20.12733400     19.49910700     13.74878400   
   319       H          1.71378400     15.97766600      4.57089300   
   320       H          2.07483400     16.33871600     13.48160700   
   321       H          4.30371600     22.62339300     21.99516600   
   322       H         21.99516600      4.30371600     22.62339300   
   323       H         22.62339300     21.99516600      4.30371600   
   324       H         16.33871600     13.48160700      2.07483400   
   325       H         13.48160700      2.07483400     16.33871600   
   326       H          3.94266600      7.46410700     22.35621600   
   327       H         10.32121600      8.09233400     16.60589300   
   328       H         22.35621600      3.94266600      7.46410700   
   329       H         16.60589300     10.32121600      8.09233400   
   330       H          7.46410700     22.35621600      3.94266600   
   331       H          8.09233400     16.60589300     10.32121600   
   332       H         19.76628400     10.58839300     14.10983400   
   333       H          1.44660700      9.96016600      7.73128400   
   334       H          9.96016600      7.73128400      1.44660700   
   335       H         10.58839300     14.10983400     19.76628400   
   336       H          7.73128400      1.44660700      9.96016600   
   337       H         14.00392600     17.89845200     20.33674300   
   338       H         11.88095200     20.02142600      9.75075700   
   339       H          3.73325700      1.96892600     18.20654800   
   340       H         18.20654800      3.73325700      1.96892600   
   341       H         20.33674300     14.00392600     17.89845200   
   342       H         17.89845200     20.33674300     14.00392600   
   343       H          1.96892600     18.20654800      3.73325700   
   344       H         23.91595200     16.08357400     14.31924300   
   345       H          4.04857400     21.78575700      0.15404800   
   346       H          0.15404800      4.04857400     21.78575700   
   347       H         21.78575700      0.15404800      4.04857400   
   348       H         16.08357400     14.31924300     23.91595200   
   349       H         14.31924300     23.91595200     16.08357400   
   350       H          6.17154800      8.30174300     22.10107400   
   351       H         10.06607400      5.86345200     15.76825700   
   352       H         22.10107400      6.17154800      8.30174300   
   353       H         15.76825700     10.06607400      5.86345200   
   354       H          8.30174300     22.10107400      6.17154800   
   355       H          5.86345200     15.76825700     10.06607400   
   356       H         20.02142600      9.75075700     11.88095200   
   357       H          2.28424300     12.18904800      7.98642600   
   358       H         12.18904800      7.98642600      2.28424300   
   359       H          9.75075700     11.88095200     20.02142600   
   360       H          7.98642600      2.28424300     12.18904800   
   361      Tv         24.07000000      0.00000000      0.00000000   
   362      Tv          0.00000000     24.07000000      0.00000000   
   363      Tv          0.00000000      0.00000000     24.07000000   

                             CARTESIAN COORDINATES

   1    N       15.558848000    15.383137000    22.141993000
   2    N        9.365637000    21.576348000     7.945507000
   3    N        1.928007000     3.523848000    20.721863000
   4    N       20.721863000     1.928007000     3.523848000
   5    N       22.141993000    15.558848000    15.383137000
   6    N       15.383137000    22.141993000    15.558848000
   7    N        3.523848000    20.721863000     1.928007000
   8    N       21.400637000    14.528652000    16.124493000
   9    N        2.493652000    19.980507000     2.669363000
  10    N        2.669363000     2.493652000    19.980507000
  11    N       19.980507000     2.669363000     2.493652000
  12    N       14.528652000    16.124493000    21.400637000
  13    N       16.124493000    21.400637000    14.528652000
  14    N        8.686863000    10.106993000    20.546152000
  15    N        8.511152000     3.348137000    13.963007000
  16    N       20.546152000     8.686863000    10.106993000
  17    N       13.963007000     8.511152000     3.348137000
  18    N       10.106993000    20.546152000     8.686863000
  19    N        3.348137000    13.963007000     8.511152000
  20    N       21.576348000     7.945507000     9.365637000
  21    N        4.089493000    14.704363000     9.541348000
  22    N       14.704363000     9.541348000     4.089493000
  23    N        7.945507000     9.365637000    21.576348000
  24    N        9.541348000     4.089493000    14.704363000
  25    C       17.766067000    14.461256000    21.229740000
  26    C        8.443756000    23.783567000     8.857760000
  27    C        2.840260000     5.731067000    21.643744000
  28    C       21.643744000     2.840260000     5.731067000
  29    C       21.229740000    17.766067000    14.461256000
  30    C       14.461256000    21.229740000    17.766067000
  31    C        5.731067000    21.643744000     2.840260000
  32    C       20.478756000    12.321433000    15.212240000
  33    C        0.286433000    20.892760000     3.591244000
  34    C        3.591244000     0.286433000    20.892760000
  35    C       20.892760000     3.591244000     0.286433000
  36    C       12.321433000    15.212240000    20.478756000
  37    C       15.212240000    20.478756000    12.321433000
  38    C        9.608744000     9.194740000    18.338933000
  39    C        6.303933000     2.426256000    14.875260000
  40    C       18.338933000     9.608744000     9.194740000
  41    C       14.875260000     6.303933000     2.426256000
  42    C        9.194740000    18.338933000     9.608744000
  43    C        2.426256000    14.875260000     6.303933000
  44    C       23.783567000     8.857760000     8.443756000
  45    C        3.177240000    15.626244000    11.748567000
  46    C       15.626244000    11.748567000     3.177240000
  47    C        8.857760000     8.443756000    23.783567000
  48    C       11.748567000     3.177240000    15.626244000
  49    C       18.940683000    14.636967000    20.420988000
  50    C        8.619467000     0.888183000     9.666512000
  51    C        3.649012000     6.905683000    21.468033000
  52    C       21.468033000     3.649012000     6.905683000
  53    C       20.420988000    18.940683000    14.636967000
  54    C       14.636967000    20.420988000    18.940683000
  55    C        6.905683000    21.468033000     3.649012000
  56    C       20.654467000    11.146817000    14.403488000
  57    C       23.181817000    21.701512000     3.415533000
  58    C        3.415533000    23.181817000    21.701512000
  59    C       21.701512000     3.415533000    23.181817000
  60    C       11.146817000    14.403488000    20.654467000
  61    C       14.403488000    20.654467000    11.146817000
  62    C        9.433033000     8.385988000    17.164317000
  63    C        5.129317000     2.601967000    15.684012000
  64    C       17.164317000     9.433033000     8.385988000
  65    C       15.684012000     5.129317000     2.601967000
  66    C        8.385988000    17.164317000     9.433033000
  67    C        2.601967000    15.684012000     5.129317000
  68    C        0.888183000     9.666512000     8.619467000
  69    C        2.368488000    15.450533000    12.923183000
  70    C       15.450533000    12.923183000     2.368488000
  71    C        9.666512000     8.619467000     0.888183000
  72    C       12.923183000     2.368488000    15.450533000
  73    C       14.793422000    17.303923000    20.813329000
[...]
  293          H           0.161636        0.8384     0.83836
  294          H           0.161636        0.8384     0.83836
  295          H           0.161636        0.8384     0.83836
  296          H           0.161636        0.8384     0.83836
  297          H           0.161636        0.8384     0.83836
  298          H           0.161636        0.8384     0.83836
  299          H           0.161636        0.8384     0.83836
  300          H           0.161636        0.8384     0.83836
  301          H           0.161636        0.8384     0.83836
  302          H           0.161636        0.8384     0.83836
  303          H           0.161636        0.8384     0.83836
  304          H           0.161636        0.8384     0.83836
  305          H           0.161636        0.8384     0.83836
  306          H           0.161636        0.8384     0.83836
  307          H           0.161636        0.8384     0.83836
  308          H           0.161636        0.8384     0.83836
  309          H           0.161636        0.8384     0.83836
  310          H           0.161636        0.8384     0.83836
  311          H           0.161636        0.8384     0.83836
  312          H           0.161636        0.8384     0.83836
  313          H           0.152179        0.8478     0.84782
  314          H           0.152179        0.8478     0.84782
  315          H           0.152179        0.8478     0.84782
  316          H           0.152179        0.8478     0.84782
  317          H           0.152179        0.8478     0.84782
  318          H           0.152179        0.8478     0.84782
  319          H           0.152179        0.8478     0.84782
  320          H           0.152179        0.8478     0.84782
  321          H           0.152179        0.8478     0.84782
  322          H           0.152179        0.8478     0.84782
  323          H           0.152179        0.8478     0.84782
  324          H           0.152179        0.8478     0.84782
  325          H           0.152179        0.8478     0.84782
  326          H           0.152179        0.8478     0.84782
  327          H           0.152179        0.8478     0.84782
  328          H           0.152179        0.8478     0.84782
  329          H           0.152179        0.8478     0.84782
  330          H           0.152179        0.8478     0.84782
  331          H           0.152179        0.8478     0.84782
  332          H           0.152179        0.8478     0.84782
  333          H           0.152179        0.8478     0.84782
  334          H           0.152179        0.8478     0.84782
  335          H           0.152179        0.8478     0.84782
  336          H           0.152179        0.8478     0.84782
  337          H           0.154467        0.8455     0.84553
  338          H           0.154467        0.8455     0.84553
  339          H           0.154467        0.8455     0.84553
  340          H           0.154467        0.8455     0.84553
  341          H           0.154467        0.8455     0.84553
  342          H           0.154467        0.8455     0.84553
  343          H           0.154467        0.8455     0.84553
  344          H           0.154467        0.8455     0.84553
  345          H           0.154467        0.8455     0.84553
  346          H           0.154467        0.8455     0.84553
  347          H           0.154467        0.8455     0.84553
  348          H           0.154467        0.8455     0.84553
  349          H           0.154467        0.8455     0.84553
  350          H           0.154467        0.8455     0.84553
  351          H           0.154467        0.8455     0.84553
  352          H           0.154467        0.8455     0.84553
  353          H           0.154467        0.8455     0.84553
  354          H           0.154467        0.8455     0.84553
  355          H           0.154467        0.8455     0.84553
  356          H           0.154467        0.8455     0.84553
  357          H           0.154467        0.8455     0.84553
  358          H           0.154467        0.8455     0.84553
  359          H           0.154467        0.8455     0.84553
  360          H           0.154467        0.8455     0.84553


          ATOMIC ORBITAL ELECTRON POPULATIONS

     Atom    s        px        py        pz   
    1  N   1.76704   1.09590   1.15663   1.14386
    2  N   1.76704   1.15663   1.09590   1.14386
    3  N   1.76704   1.14386   1.09590   1.15663
    4  N   1.76704   1.15663   1.14386   1.09590
    5  N   1.76704   1.14386   1.09590   1.15663
    6  N   1.76704   1.15663   1.14386   1.09590
    7  N   1.76704   1.09590   1.15663   1.14386
    8  N   1.76704   1.15663   1.09590   1.14386
    9  N   1.76704   1.09590   1.14386   1.15663
   10  N   1.76704   1.15663   1.09590   1.14386
   11  N   1.76704   1.14386   1.15663   1.09590
   12  N   1.76704   1.09590   1.14386   1.15663
   13  N   1.76704   1.14386   1.15663   1.09590
   14  N   1.76704   1.15663   1.14386   1.09590
   15  N   1.76704   1.09590   1.15663   1.14386
   16  N   1.76704   1.09590   1.15663   1.14386
   17  N   1.76704   1.14386   1.09590   1.15663
   18  N   1.76704   1.14386   1.09590   1.15663
   19  N   1.76704   1.15663   1.14386   1.09590
   20  N   1.76704   1.09590   1.14386   1.15663
   21  N   1.76704   1.14386   1.15663   1.09590
   22  N   1.76704   1.15663   1.09590   1.14386
   23  N   1.76704   1.14386   1.15663   1.09590
   24  N   1.76704   1.09590   1.14386   1.15663
   25  C   1.07663   1.00511   1.08817   1.09068
   26  C   1.07663   1.08817   1.00511   1.09068
   27  C   1.07663   1.09068   1.00511   1.08817
   28  C   1.07663   1.08817   1.09068   1.00511
   29  C   1.07663   1.09068   1.00511   1.08817
   30  C   1.07663   1.08817   1.09068   1.00511
   31  C   1.07663   1.00511   1.08817   1.09068
   32  C   1.07663   1.08817   1.00511   1.09068
   33  C   1.07663   1.00511   1.09068   1.08817
   34  C   1.07663   1.08817   1.00511   1.09068
   35  C   1.07663   1.09068   1.08817   1.00511
   36  C   1.07663   1.00511   1.09068   1.08817
   37  C   1.07663   1.09068   1.08817   1.00511
   38  C   1.07663   1.08817   1.09068   1.00511
   39  C   1.07663   1.00511   1.08817   1.09068
   40  C   1.07663   1.00511   1.08817   1.09068
   41  C   1.07663   1.09068   1.00511   1.08817
   42  C   1.07663   1.09068   1.00511   1.08817
   43  C   1.07663   1.08817   1.09068   1.00511
   44  C   1.07663   1.00511   1.09068   1.08817
   45  C   1.07663   1.09068   1.08817   1.00511
   46  C   1.07663   1.08817   1.00511   1.09068
   47  C   1.07663   1.09068   1.08817   1.00511
   48  C   1.07663   1.00511   1.09068   1.08817
   49  C   1.08544   0.98841   1.03489   0.95897
   50  C   1.08544   1.03489   0.98841   0.95897
   51  C   1.08544   0.95897   0.98841   1.03489
   52  C   1.08544   1.03489   0.95897   0.98841
   53  C   1.08544   0.95897   0.98841   1.03489
   54  C   1.08544   1.03489   0.95897   0.98841
   55  C   1.08544   0.98841   1.03489   0.95897
   56  C   1.08544   1.03489   0.98841   0.95897
   57  C   1.08544   0.98841   0.95897   1.03489
   58  C   1.08544   1.03489   0.98841   0.95897
   59  C   1.08544   0.95897   1.03489   0.98841
   60  C   1.08544   0.98841   0.95897   1.03489
   61  C   1.08544   0.95897   1.03489   0.98841
   62  C   1.08544   1.03489   0.95897   0.98841
   63  C   1.08544   0.98841   1.03489   0.95897
   64  C   1.08544   0.98841   1.03489   0.95897
   65  C   1.08544   0.95897   0.98841   1.03489
   66  C   1.08544   0.95897   0.98841   1.03489
   67  C   1.08544   1.03489   0.95897   0.98841
   68  C   1.08544   0.98841   0.95897   1.03489
   69  C   1.08544   0.95897   1.03489   0.98841
   70  C   1.08544   1.03489   0.98841   0.95897
   71  C   1.08544   0.95897   1.03489   0.98841
   72  C   1.08544   0.98841   0.95897   1.03489
   73  C   1.12333   1.00652   0.98020   0.83354
   74  C   1.12333   0.98020   1.00652   0.83354
   75  C   1.12333   0.83354   1.00652   0.98020
   76  C   1.12333   0.98020   0.83354   1.00652
   77  C   1.12333   0.83354   1.00652   0.98020
   78  C   1.12333   0.98020   0.83354   1.00652
   79  C   1.12333   1.00652   0.98020   0.83354
   80  C   1.12333   0.98020   1.00652   0.83354
   81  C   1.12333   1.00652   0.83354   0.98020
   82  C   1.12333   0.98020   1.00652   0.83354
   83  C   1.12333   0.83354   0.98020   1.00652
   84  C   1.12333   1.00652   0.83354   0.98020
   85  C   1.12333   0.83354   0.98020   1.00652
   86  C   1.12333   0.98020   0.83354   1.00652
   87  C   1.12333   1.00652   0.98020   0.83354
   88  C   1.12333   1.00652   0.98020   0.83354
   89  C   1.12333   0.83354   1.00652   0.98020
   90  C   1.12333   0.83354   1.00652   0.98020
   91  C   1.12333   0.98020   0.83354   1.00652
   92  C   1.12333   1.00652   0.83354   0.98020
   93  C   1.12333   0.83354   0.98020   1.00652
   94  C   1.12333   0.98020   1.00652   0.83354
   95  C   1.12333   0.83354   0.98020   1.00652
   96  C   1.12333   1.00652   0.83354   0.98020
   97  C   1.06751   0.99099   1.00180   0.96474
   98  C   1.06751   1.00180   0.99099   0.96474
   99  C   1.06751   0.96474   0.99099   1.00180
  100  C   1.06751   1.00180   0.96474   0.99099
  101  C   1.06751   0.96474   0.99099   1.00180
  102  C   1.06751   1.00180   0.96474   0.99099
  103  C   1.06751   0.99099   1.00180   0.96474
  104  C   1.06751   1.00180   0.99099   0.96474
  105  C   1.06751   0.99099   0.96474   1.00180
  106  C   1.06751   1.00180   0.99099   0.96474
  107  C   1.06751   0.96474   1.00180   0.99099
  108  C   1.06751   0.99099   0.96474   1.00180
  109  C   1.06751   0.96474   1.00180   0.99099
  110  C   1.06751   1.00180   0.96474   0.99099
  111  C   1.06751   0.99099   1.00180   0.96474
  112  C   1.06751   0.99099   1.00180   0.96474
  113  C   1.06751   0.96474   0.99099   1.00180
  114  C   1.06751   0.96474   0.99099   1.00180
  115  C   1.06751   1.00180   0.96474   0.99099
  116  C   1.06751   0.99099   0.96474   1.00180
  117  C   1.06751   0.96474   1.00180   0.99099
  118  C   1.06751   1.00180   0.99099   0.96474
  119  C   1.06751   0.96474   1.00180   0.99099
  120  C   1.06751   0.99099   0.96474   1.00180
  121  C   1.06371   0.98615   0.98017   0.99924
  122  C   1.06371   0.98017   0.98615   0.99924
  123  C   1.06371   0.99924   0.98615   0.98017
  124  C   1.06371   0.98017   0.99924   0.98615
  125  C   1.06371   0.99924   0.98615   0.98017
  126  C   1.06371   0.98017   0.99924   0.98615
  127  C   1.06371   0.98615   0.98017   0.99924
  128  C   1.06371   0.98017   0.98615   0.99924
  129  C   1.06371   0.98615   0.99924   0.98017
  130  C   1.06371   0.98017   0.98615   0.99924
  131  C   1.06371   0.99924   0.98017   0.98615
  132  C   1.06371   0.98615   0.99924   0.98017
  133  C   1.06371   0.99924   0.98017   0.98615
  134  C   1.06371   0.98017   0.99924   0.98615
  135  C   1.06371   0.98615   0.98017   0.99924
  136  C   1.06371   0.98615   0.98017   0.99924
  137  C   1.06371   0.99924   0.98615   0.98017
  138  C   1.06371   0.99924   0.98615   0.98017
  139  C   1.06371   0.98017   0.99924   0.98615
  140  C   1.06371   0.98615   0.99924   0.98017
  141  C   1.06371   0.99924   0.98017   0.98615
  142  C   1.06371   0.98017   0.98615   0.99924
  143  C   1.06371   0.99924   0.98017   0.98615
  144  C   1.06371   0.98615   0.99924   0.98017
  145  C   1.08044   0.96541   0.95393   0.93952
  146  C   1.08044   0.95393   0.96541   0.93952
  147  C   1.08044   0.93952   0.96541   0.95393
  148  C   1.08044   0.95393   0.93952   0.96541
  149  C   1.08044   0.93952   0.96541   0.95393
  150  C   1.08044   0.95393   0.93952   0.96541
  151  C   1.08044   0.96541   0.95393   0.93952
  152  C   1.08044   0.95393   0.96541   0.93952
  153  C   1.08044   0.96541   0.93952   0.95393
  154  C   1.08044   0.95393   0.96541   0.93952
  155  C   1.08044   0.93952   0.95393   0.96541
  156  C   1.08044   0.96541   0.93952   0.95393
  157  C   1.08044   0.93952   0.95393   0.96541
  158  C   1.08044   0.95393   0.93952   0.96541
  159  C   1.08044   0.96541   0.95393   0.93952
  160  C   1.08044   0.96541   0.95393   0.93952
  161  C   1.08044   0.93952   0.96541   0.95393
  162  C   1.08044   0.93952   0.96541   0.95393
  163  C   1.08044   0.95393   0.93952   0.96541
  164  C   1.08044   0.96541   0.93952   0.95393
  165  C   1.08044   0.93952   0.95393   0.96541
  166  C   1.08044   0.95393   0.96541   0.93952
  167  C   1.08044   0.93952   0.95393   0.96541
  168  C   1.08044   0.96541   0.93952   0.95393
  169  C   1.06023   0.97733   0.97847   0.97691
  170  C   1.06023   0.97847   0.97733   0.97691
  171  C   1.06023   0.97691   0.97733   0.97847
  172  C   1.06023   0.97847   0.97691   0.97733
  173  C   1.06023   0.97691   0.97733   0.97847
  174  C   1.06023   0.97847   0.97691   0.97733
  175  C   1.06023   0.97733   0.97847   0.97691
  176  C   1.06023   0.97847   0.97733   0.97691
  177  C   1.06023   0.97733   0.97691   0.97847
  178  C   1.06023   0.97847   0.97733   0.97691
  179  C   1.06023   0.97691   0.97847   0.97733
  180  C   1.06023   0.97733   0.97691   0.97847
  181  C   1.06023   0.97691   0.97847   0.97733
  182  C   1.06023   0.97847   0.97691   0.97733
  183  C   1.06023   0.97733   0.97847   0.97691
  184  C   1.06023   0.97733   0.97847   0.97691
  185  C   1.06023   0.97691   0.97733   0.97847
  186  C   1.06023   0.97691   0.97733   0.97847
  187  C   1.06023   0.97847   0.97691   0.97733
  188  C   1.06023   0.97733   0.97691   0.97847
  189  C   1.06023   0.97691   0.97847   0.97733
  190  C   1.06023   0.97847   0.97733   0.97691
  191  C   1.06023   0.97691   0.97847   0.97733
  192  C   1.06023   0.97733   0.97691   0.97847
  193  C   1.06142   0.97020   0.98184   1.00503
  194  C   1.06142   0.98184   0.97020   1.00503
  195  C   1.06142   1.00503   0.97020   0.98184
  196  C   1.06142   0.98184   1.00503   0.97020
  197  C   1.06142   1.00503   0.97020   0.98184
  198  C   1.06142   0.98184   1.00503   0.97020
  199  C   1.06142   0.97020   0.98184   1.00503
  200  C   1.06142   0.98184   0.97020   1.00503
  201  C   1.06142   0.97020   1.00503   0.98184
  202  C   1.06142   0.98184   0.97020   1.00503
  203  C   1.06142   1.00503   0.98184   0.97020
  204  C   1.06142   0.97020   1.00503   0.98184
  205  C   1.06142   1.00503   0.98184   0.97020
  206  C   1.06142   0.98184   1.00503   0.97020
  207  C   1.06142   0.97020   0.98184   1.00503
  208  C   1.06142   0.97020   0.98184   1.00503
  209  C   1.06142   1.00503   0.97020   0.98184
  210  C   1.06142   1.00503   0.97020   0.98184
  211  C   1.06142   0.98184   1.00503   0.97020
  212  C   1.06142   0.97020   1.00503   0.98184
  213  C   1.06142   1.00503   0.98184   0.97020
  214  C   1.06142   0.98184   0.97020   1.00503
  215  C   1.06142   1.00503   0.98184   0.97020
  216  C   1.06142   0.97020   1.00503   0.98184
  217  C   1.05987   0.97093   0.96994   1.06282
  218  C   1.05987   0.96994   0.97093   1.06282
  219  C   1.05987   1.06282   0.97093   0.96994
  220  C   1.05987   0.96994   1.06282   0.97093
  221  C   1.05987   1.06282   0.97093   0.96994
  222  C   1.05987   0.96994   1.06282   0.97093
  223  C   1.05987   0.97093   0.96994   1.06282
  224  C   1.05987   0.96994   0.97093   1.06282
  225  C   1.05987   0.97093   1.06282   0.96994
  226  C   1.05987   0.96994   0.97093   1.06282
  227  C   1.05987   1.06282   0.96994   0.97093
  228  C   1.05987   0.97093   1.06282   0.96994
  229  C   1.05987   1.06282   0.96994   0.97093
  230  C   1.05987   0.96994   1.06282   0.97093
  231  C   1.05987   0.97093   0.96994   1.06282
  232  C   1.05987   0.97093   0.96994   1.06282
  233  C   1.05987   1.06282   0.97093   0.96994
  234  C   1.05987   1.06282   0.97093   0.96994
  235  C   1.05987   0.96994   1.06282   0.97093
  236  C   1.05987   0.97093   1.06282   0.96994
  237  C   1.05987   1.06282   0.96994   0.97093
  238  C   1.05987   0.96994   0.97093   1.06282
  239  C   1.05987   1.06282   0.96994   0.97093
  240  C   1.05987   0.97093   1.06282   0.96994
  241  C   1.06125   1.01028   0.98161   1.02173
  242  C   1.06125   0.98161   1.01028   1.02173
  243  C   1.06125   1.02173   1.01028   0.98161
  244  C   1.06125   0.98161   1.02173   1.01028
  245  C   1.06125   1.02173   1.01028   0.98161
  246  C   1.06125   0.98161   1.02173   1.01028
  247  C   1.06125   1.01028   0.98161   1.02173
  248  C   1.06125   0.98161   1.01028   1.02173
  249  C   1.06125   1.01028   1.02173   0.98161
  250  C   1.06125   0.98161   1.01028   1.02173
  251  C   1.06125   1.02173   0.98161   1.01028
  252  C   1.06125   1.01028   1.02173   0.98161
  253  C   1.06125   1.02173   0.98161   1.01028
  254  C   1.06125   0.98161   1.02173   1.01028
  255  C   1.06125   1.01028   0.98161   1.02173
  256  C   1.06125   1.01028   0.98161   1.02173
  257  C   1.06125   1.02173   1.01028   0.98161
  258  C   1.06125   1.02173   1.01028   0.98161
  259  C   1.06125   0.98161   1.02173   1.01028
  260  C   1.06125   1.01028   1.02173   0.98161
  261  C   1.06125   1.02173   0.98161   1.01028
  262  C   1.06125   0.98161   1.01028   1.02173
  263  C   1.06125   1.02173   0.98161   1.01028
  264  C   1.06125   1.01028   1.02173   0.98161
  265  C   1.09413   0.83443   0.95013   1.01083
  266  C   1.09413   0.95013   0.83443   1.01083
  267  C   1.09413   1.01083   0.83443   0.95013
  268  C   1.09413   0.95013   1.01083   0.83443
  269  C   1.09413   1.01083   0.83443   0.95013
  270  C   1.09413   0.95013   1.01083   0.83443
  271  C   1.09413   0.83443   0.95013   1.01083
  272  C   1.09413   0.95013   0.83443   1.01083
  273  C   1.09413   0.83443   1.01083   0.95013
  274  C   1.09413   0.95013   0.83443   1.01083
  275  C   1.09413   1.01083   0.95013   0.83443
  276  C   1.09413   0.83443   1.01083   0.95013
  277  C   1.09413   1.01083   0.95013   0.83443
  278  C   1.09413   0.95013   1.01083   0.83443
  279  C   1.09413   0.83443   0.95013   1.01083
  280  C   1.09413   0.83443   0.95013   1.01083
  281  C   1.09413   1.01083   0.83443   0.95013
  282  C   1.09413   1.01083   0.83443   0.95013
  283  C   1.09413   0.95013   1.01083   0.83443
  284  C   1.09413   0.83443   1.01083   0.95013
  285  C   1.09413   1.01083   0.95013   0.83443
  286  C   1.09413   0.95013   0.83443   1.01083
  287  C   1.09413   1.01083   0.95013   0.83443
  288  C   1.09413   0.83443   1.01083   0.95013
  289  H   0.83836
  290  H   0.83836
  291  H   0.83836
  292  H   0.83836
  293  H   0.83836
  294  H   0.83836
  295  H   0.83836
  296  H   0.83836
  297  H   0.83836
  298  H   0.83836
  299  H   0.83836
  300  H   0.83836
  301  H   0.83836
  302  H   0.83836
  303  H   0.83836
  304  H   0.83836
  305  H   0.83836
  306  H   0.83836
  307  H   0.83836
  308  H   0.83836
  309  H   0.83836
  310  H   0.83836
  311  H   0.83836
  312  H   0.83836
  313  H   0.84782
  314  H   0.84782
  315  H   0.84782
  316  H   0.84782
  317  H   0.84782
  318  H   0.84782
  319  H   0.84782
  320  H   0.84782
  321  H   0.84782
  322  H   0.84782
  323  H   0.84782
  324  H   0.84782
  325  H   0.84782
  326  H   0.84782
  327  H   0.84782
  328  H   0.84782
  329  H   0.84782
  330  H   0.84782
  331  H   0.84782
  332  H   0.84782
  333  H   0.84782
  334  H   0.84782
  335  H   0.84782
  336  H   0.84782
  337  H   0.84553
  338  H   0.84553
  339  H   0.84553
  340  H   0.84553
  341  H   0.84553
  342  H   0.84553
  343  H   0.84553
  344  H   0.84553
  345  H   0.84553
  346  H   0.84553
  347  H   0.84553
  348  H   0.84553
  349  H   0.84553
  350  H   0.84553
  351  H   0.84553
  352  H   0.84553
  353  H   0.84553
  354  H   0.84553
  355  H   0.84553
  356  H   0.84553
  357  H   0.84553
  358  H   0.84553
  359  H   0.84553
  360  H   0.84553

 **********************
 *                    *
 * JOB ENDED NORMALLY *
 *                    *
 **********************



 TOTAL JOB TIME:            98.47 SECONDS

 == MOPAC DONE ==
