 *******************************************************************************
 **                                                                           **
 **                              MOPAC v22.1.0                                **
 **                                                                           **
 *******************************************************************************
 **          Digital Object Identifier (DOI): 10.5281/zenodo.6511958          **
 **    Visit the DOI location for information on how to cite this program.    **
 *******************************************************************************

                              PM7 CALCULATION RESULTS

 *******************************************************************************
 *  CALCULATION DONE:                                Wed Jan 31 15:18:20 2024  *
 *  PM7        - The PM7 Hamiltonian to be used
 *  NOOPT      - DO NOT OPTIMIZE ANY COORDINATES
 *
 *
 *
 *                 CHARGE ON SYSTEM = 0
 *
 *
 *
 *  T=         - A TIME OF 172800.0 SECONDS REQUESTED
 *  DUMP=N     - RESTART FILE WRITTEN EVERY 7200.0 SECONDS REQUESTED
 *******************************************************************************
PM7 CHARGE=0 NOOPT


   ATOM   CHEMICAL          X               Y               Z
  NUMBER   SYMBOL      (ANGSTROMS)     (ANGSTROMS)     (ANGSTROMS)

     1       N         19.29932600     15.89101400     20.03346100   
     2       N          9.87351400      1.24682600     10.05403900   
     3       N          4.03653900      7.26432600     20.21398600   
     4       N         20.21398600      4.03653900      7.26432600   
     5       N         20.03346100     19.29932600     15.89101400   
     6       N         15.89101400     20.03346100     19.29932600   
     7       N          7.26432600     20.21398600      4.03653900   
     8       N         21.90851400     10.78817400     14.01596100   
     9       N         22.82317400     22.08903900      2.16148600   
    10       N          2.16148600     22.82317400     22.08903900   
    11       N         22.08903900      2.16148600     22.82317400   
    12       N         10.78817400     14.01596100     21.90851400   
    13       N         14.01596100     21.90851400     10.78817400   
    14       N          8.17898600      7.99846100     16.80567400   
    15       N          4.77067400      3.85601400     16.07153900   
    16       N         16.80567400      8.17898600      7.99846100   
    17       N         16.07153900      4.77067400      3.85601400   
    18       N          7.99846100     16.80567400      8.17898600   
    19       N          3.85601400     16.07153900      4.77067400   
    20       N          1.24682600     10.05403900      9.87351400   
    21       N          1.98096100     14.19648600     13.28182600   
    22       N         14.19648600     13.28182600      1.98096100   
    23       N         10.05403900      9.87351400      1.24682600   
    24       N         13.28182600      1.98096100     14.19648600   
    25       C         17.76606700     14.46125600     21.22974000   
    26       C          8.44375600     23.78356700      8.85776000   
    27       C          2.84026000      5.73106700     21.64374400   
    28       C         21.64374400      2.84026000      5.73106700   
    29       C         21.22974000     17.76606700     14.46125600   
    30       C         14.46125600     21.22974000     17.76606700   
    31       C          5.73106700     21.64374400      2.84026000   
    32       C         20.47875600     12.32143300     15.21224000   
    33       C          0.28643300     20.89276000      3.59124400   
    34       C          3.59124400      0.28643300     20.89276000   
    35       C         20.89276000      3.59124400      0.28643300   
    36       C         12.32143300     15.21224000     20.47875600   
    37       C         15.21224000     20.47875600     12.32143300   
    38       C          9.60874400      9.19474000     18.33893300   
    39       C          6.30393300      2.42625600     14.87526000   
    40       C         18.33893300      9.60874400      9.19474000   
    41       C         14.87526000      6.30393300      2.42625600   
    42       C          9.19474000     18.33893300      9.60874400   
    43       C          2.42625600     14.87526000      6.30393300   
    44       C         23.78356700      8.85776000      8.44375600   
    45       C          3.17724000     15.62624400     11.74856700   
    46       C         15.62624400     11.74856700      3.17724000   
    47       C          8.85776000      8.44375600     23.78356700   
    48       C         11.74856700      3.17724000     15.62624400   
    49       C         18.94068300     14.63696700     20.42098800   
    50       C          8.61946700      0.88818300      9.66651200   
    51       C          3.64901200      6.90568300     21.46803300   
    52       C         21.46803300      3.64901200      6.90568300   
    53       C         20.42098800     18.94068300     14.63696700   
    54       C         14.63696700     20.42098800     18.94068300   
    55       C          6.90568300     21.46803300      3.64901200   
    56       C         20.65446700     11.14681700     14.40348800   
    57       C         23.18181700     21.70151200      3.41553300   
    58       C          3.41553300     23.18181700     21.70151200   
    59       C         21.70151200      3.41553300     23.18181700   
    60       C         11.14681700     14.40348800     20.65446700   
    61       C         14.40348800     20.65446700     11.14681700   
    62       C          9.43303300      8.38598800     17.16431700   
    63       C          5.12931700      2.60196700     15.68401200   
    64       C         17.16431700      9.43303300      8.38598800   
    65       C         15.68401200      5.12931700      2.60196700   
    66       C          8.38598800     17.16431700      9.43303300   
    67       C          2.60196700     15.68401200      5.12931700   
    68       C          0.88818300      9.66651200      8.61946700   
    69       C          2.36848800     15.45053300     12.92318300   
    70       C         15.45053300     12.92318300      2.36848800   
    71       C          9.66651200      8.61946700      0.88818300   
    72       C         12.92318300      2.36848800     15.45053300   
    73       C         14.79342200     17.30392300     20.81332900   
    74       C         11.28642300     20.81092200      9.27417100   
    75       C          3.25667100      2.75842200     18.80107700   
    76       C         18.80107700      3.25667100      2.75842200   
    77       C         20.81332900     14.79342200     17.30392300   
    78       C         17.30392300     20.81332900     14.79342200   
    79       C          2.75842200     18.80107700      3.25667100   
    80       C         23.32142300     15.29407800     14.79582900   
    81       C          3.25907800     21.30917100      0.74857700   
    82       C          0.74857700      3.25907800     21.30917100   
    83       C         21.30917100      0.74857700      3.25907800   
    84       C         15.29407800     14.79582900     23.32142300   
    85       C         14.79582900     23.32142300     15.29407800   
    86       C          6.76607700      8.77832900     21.31157800   
    87       C          9.27657800      5.26892300     15.29167100   
    88       C         21.31157800      6.76607700      8.77832900   
    89       C         15.29167100      9.27657800      5.26892300   
    90       C          8.77832900     21.31157800      6.76607700   
    91       C          5.26892300     15.29167100      9.27657800   
    92       C         20.81092200      9.27417100     11.28642300   
    93       C          2.76082900     12.78357700      8.77592200   
    94       C         12.78357700      8.77592200      2.76082900   
    95       C          9.27417100     11.28642300     20.81092200   
    96       C          8.77592200      2.76082900     12.78357700   
    97       C         15.55884800     15.38313700     22.14199300   
    98       C          9.36563700     21.57634800      7.94550700   
    99       C          1.92800700      3.52384800     20.72186300   
   100       C         20.72186300      1.92800700      3.52384800   
   101       C         22.14199300     15.55884800     15.38313700   
   102       C         15.38313700     22.14199300     15.55884800   
   103       C          3.52384800     20.72186300      1.92800700   
   104       C         21.40063700     14.52865200     16.12449300   
   105       C          2.49365200     19.98050700      2.66936300   
   106       C          2.66936300      2.49365200     19.98050700   
   107       C         19.98050700      2.66936300      2.49365200   
   108       C         14.52865200     16.12449300     21.40063700   
   109       C         16.12449300     21.40063700     14.52865200   
   110       C          8.68686300     10.10699300     20.54615200   
   111       C          8.51115200      3.34813700     13.96300700   
   112       C         20.54615200      8.68686300     10.10699300   
   113       C         13.96300700      8.51115200      3.34813700   
   114       C         10.10699300     20.54615200      8.68686300   
   115       C          3.34813700     13.96300700      8.51115200   
   116       C         21.57634800      7.94550700      9.36563700   
   117       C          4.08949300     14.70436300      9.54134800   
   118       C         14.70436300      9.54134800      4.08949300   
   119       C          7.94550700      9.36563700     21.57634800   
   120       C          9.54134800      4.08949300     14.70436300   
   121       C         19.21748800     19.98050700     17.98510400   
   122       C         13.96300700      1.16498800     12.10239600   
   123       C          6.08489600      7.18248800     16.12449300   
   124       C         16.12449300      6.08489600      7.18248800   
   125       C         17.98510400     19.21748800     19.98050700   
   126       C         19.98050700     17.98510400     19.21748800   
   127       C          7.18248800     16.12449300      6.08489600   
   128       C          1.92800700     10.87001200     11.96760400   
   129       C         22.90501200      0.06739600     22.14199300   
   130       C         22.14199300     22.90501200      0.06739600   
   131       C          0.06739600     22.14199300     22.90501200   
   132       C         10.87001200     11.96760400      1.92800700   
   133       C         11.96760400      1.92800700     10.87001200   
   134       C          4.08949300      5.95010400     16.88751200   
   135       C          4.85251200      7.94550700     18.11989600   
   136       C         16.88751200      4.08949300      5.95010400   
   137       C         18.11989600      4.85251200      7.94550700   
   138       C          5.95010400     16.88751200      4.08949300   
   139       C          7.94550700     18.11989600      4.85251200   
   140       C          1.16498800     12.10239600     13.96300700   
   141       C         24.00260400     10.10699300     13.19998800   
   142       C         10.10699300     13.19998800     24.00260400   
   143       C         12.10239600     13.96300700      1.16498800   
   144       C         13.19998800     24.00260400     10.10699300   
   145       C         18.45687600     16.94528000     20.56300100   
   146       C         10.92778000      0.40437600      9.52449900   
   147       C          3.50699900      6.42187600     19.15972000   
   148       C         19.15972000      3.50699900      6.42187600   
   149       C         20.56300100     18.45687600     16.94528000   
   150       C         16.94528000     20.56300100     18.45687600   
   151       C          6.42187600     19.15972000      3.50699900   
   152       C         22.96278000     11.63062400     14.54550100   
   153       C         23.66562400     21.55949900      1.10722000   
   154       C          1.10722000     23.66562400     21.55949900   
   155       C         21.55949900      1.10722000     23.66562400   
   156       C         11.63062400     14.54550100     22.96278000   
   157       C         14.54550100     22.96278000     11.63062400   
   158       C          7.12472000      8.52800100     17.64812400   
   159       C          5.61312400      4.91028000     15.54199900   
   160       C         17.64812400      7.12472000      8.52800100   
   161       C         15.54199900      5.61312400      4.91028000   
   162       C          8.52800100     17.64812400      7.12472000   
   163       C          4.91028000     15.54199900      5.61312400   
   164       C          0.40437600      9.52449900     10.92778000   
   165       C          2.51050100     13.14222000     12.43937600   
   166       C         13.14222000     12.43937600      2.51050100   
   167       C          9.52449900     10.92778000      0.40437600   
   168       C         12.43937600      2.51050100     13.14222000   
   169       C         16.54812500     19.02011400     20.18991600   
   170       C         13.00261400     22.56562500      9.89758400   
   171       C          3.88008400      4.51312500     17.08488600   
   172       C         17.08488600      3.88008400      4.51312500   
   173       C         20.18991600     16.54812500     19.02011400   
   174       C         19.02011400     20.18991600     16.54812500   
   175       C          4.51312500     17.08488600      3.88008400   
   176       C          0.96761400     13.53937500     14.17241600   
   177       C          1.50437500     21.93258400     23.10238600   
   178       C         23.10238600      1.50437500     21.93258400   
   179       C         21.93258400     23.10238600      1.50437500   
   180       C         13.53937500     14.17241600      0.96761400   
   181       C         14.17241600      0.96761400     13.53937500   
   182       C          5.04988600      8.15491600     19.55687500   
   183       C          7.52187500      6.98511400     15.91508400   
   184       C         19.55687500      5.04988600      8.15491600   
   185       C         15.91508400      7.52187500      6.98511400   
   186       C          8.15491600     19.55687500      5.04988600   
   187       C          6.98511400     15.91508400      7.52187500   
   188       C         22.56562500      9.89758400     13.00261400   
   189       C          2.13741600     11.06738600     10.53062500   
   190       C         11.06738600     10.53062500      2.13741600   
   191       C          9.89758400     13.00261400     22.56562500   
   192       C         10.53062500      2.13741600     11.06738600   
   193       C         23.22514300     21.99035200     23.90873100   
   194       C         15.97285200      5.17264300      6.17876900   
   195       C          0.16126900     11.19014300     14.11464800   
   196       C         14.11464800      0.16126900     11.19014300   
   197       C         23.90873100     23.22514300     21.99035200   
   198       C         21.99035200     23.90873100     23.22514300   
   199       C         11.19014300     14.11464800      0.16126900   
   200       C          3.93785200      6.86235700     17.89123100   
   201       C         18.89735700     18.21376900     20.13214800   
   202       C         20.13214800     18.89735700     18.21376900   
   203       C         18.21376900     20.13214800     18.89735700   
   204       C          6.86235700     17.89123100      3.93785200   
   205       C         17.89123100      3.93785200      6.86235700   
   206       C          2.07964800     11.87373100     12.87985700   
   207       C          0.84485700      9.95535200     12.19626900   
   208       C         12.87985700      2.07964800     11.87373100   
   209       C         12.19626900      0.84485700      9.95535200   
   210       C         11.87373100     12.87985700      2.07964800   
   211       C          9.95535200     12.19626900      0.84485700   
   212       C          5.17264300      6.17876900     15.97285200   
   213       C          5.85623100      8.09714800     17.20764300   
   214       C          8.09714800     17.20764300      5.85623100   
   215       C          6.17876900     15.97285200      5.17264300   
   216       C         17.20764300      5.85623100      8.09714800   
   217       C         17.16672400     16.79123200     21.00829600   
   218       C         10.77373200     23.18422400      9.07920400   
   219       C          3.06170400      5.13172400     19.31376800   
   220       C         19.31376800      3.06170400      5.13172400   
   221       C         21.00829600     17.16672400     16.79123200   
   222       C         16.79123200     21.00829600     17.16672400   
   223       C          5.13172400     19.31376800      3.06170400   
   224       C         22.80873200     12.92077600     14.99079600   
   225       C          0.88577600     21.11420400      1.26126800   
   226       C          1.26126800      0.88577600     21.11420400   
   227       C         21.11420400      1.26126800      0.88577600   
   228       C         12.92077600     14.99079600     22.80873200   
   229       C         14.99079600     22.80873200     12.92077600   
   230       C          7.27876800      8.97329600     18.93827600   
   231       C          6.90327600      4.75623200     15.09670400   
   232       C         18.93827600      7.27876800      8.97329600   
   233       C         15.09670400      6.90327600      4.75623200   
   234       C          8.97329600     18.93827600      7.27876800   
   235       C          4.75623200     15.09670400      6.90327600   
   236       C         23.18422400      9.07920400     10.77373200   
   237       C          2.95579600     13.29626800     11.14922400   
   238       C         13.29626800     11.14922400      2.95579600   
   239       C          9.07920400     10.77373200     23.18422400   
   240       C         11.14922400      2.95579600     13.29626800   
   241       C         16.16300500     17.81420700     20.72908400   
   242       C         11.79670700     22.18050500      9.35841600   
   243       C          3.34091600      4.12800500     18.29079300   
   244       C         18.29079300      3.34091600      4.12800500   
   245       C         20.72908400     16.16300500     17.81420700   
   246       C         17.81420700     20.72908400     16.16300500   
   247       C          4.12800500     18.29079300      3.34091600   
   248       C         23.83170700     13.92449500     14.71158400   
   249       C          1.88949500     21.39341600      0.23829300   
   250       C          0.23829300      1.88949500     21.39341600   
   251       C         21.39341600      0.23829300      1.88949500   
   252       C         13.92449500     14.71158400     23.83170700   
   253       C         14.71158400     23.83170700     13.92449500   
   254       C          6.25579300      8.69408400     19.94199500   
   255       C          7.90699500      5.77920700     15.37591600   
   256       C         19.94199500      6.25579300      8.69408400   
   257       C         15.37591600      7.90699500      5.77920700   
   258       C          8.69408400     19.94199500      6.25579300   
   259       C          5.77920700     15.37591600      7.90699500   
   260       C         22.18050500      9.35841600     11.79670700   
   261       C          2.67658400     12.27329300     10.14550500   
   262       C         12.27329300     10.14550500      2.67658400   
   263       C          9.35841600     11.79670700     22.18050500   
   264       C         10.14550500      2.67658400     12.27329300   
   265       C         16.88029100     15.47701000     21.48728900   
   266       C          9.45951000     22.89779100      8.60021100   
   267       C          2.58271100      4.84529100     20.62799000   
   268       C         20.62799000      2.58271100      4.84529100   
   269       C         21.48728900     16.88029100     15.47701000   
   270       C         15.47701000     21.48728900     16.88029100   
   271       C          4.84529100     20.62799000      2.58271100   
   272       C         21.49451000     13.20720900     15.46978900   
   273       C          1.17220900     20.63521100      2.57549000   
   274       C          2.57549000      1.17220900     20.63521100   
   275       C         20.63521100      2.57549000      1.17220900   
   276       C         13.20720900     15.46978900     21.49451000   
   277       C         15.46978900     21.49451000     13.20720900   
   278       C          8.59299000      9.45228900     19.22470900   
   279       C          7.18970900      3.44201000     14.61771100   
   280       C         19.22470900      8.59299000      9.45228900   
   281       C         14.61771100      7.18970900      3.44201000   
   282       C          9.45228900     19.22470900      8.59299000   
   283       C          3.44201000     14.61771100      7.18970900   
   284       C         22.89779100      8.60021100      9.45951000   
   285       C          3.43478900     14.61049000     10.86279100   
   286       C         14.61049000     10.86279100      3.43478900   
   287       C          8.60021100      9.45951000     22.89779100   
   288       C         10.86279100      3.43478900     14.61049000   
   289       H         13.45031600     21.59801100     17.55184400   
   290       H         15.58051100     19.46781600     12.53565600   
   291       H          6.51815600      1.41531600     14.50698900   
   292       H         14.50698900      6.51815600      1.41531600   
   293       H         17.55184400     13.45031600     21.59801100   
   294       H         21.59801100     17.55184400     13.45031600   
   295       H          1.41531600     14.50698900      6.51815600   
   296       H          3.54551100     16.63718400     11.53434400   
   297       H          4.60218400      0.50065600     20.52448900   
   298       H         20.52448900      4.60218400      0.50065600   
   299       H          0.50065600     20.52448900      4.60218400   
   300       H         16.63718400     11.53434400      3.54551100   
   301       H         11.53434400      3.54551100     16.63718400   
   302       H          2.47198900      5.51684400     22.65468400   
   303       H         10.61968400      9.56301100     18.55315600   
   304       H         22.65468400      2.47198900      5.51684400   
   305       H         18.55315600     10.61968400      9.56301100   
   306       H          5.51684400     22.65468400      2.47198900   
   307       H          9.56301100     18.55315600     10.61968400   
   308       H         19.46781600     12.53565600     15.58051100   
   309       H         23.56934400      8.48948900      7.43281600   
   310       H          8.48948900      7.43281600     23.56934400   
   311       H         12.53565600     15.58051100     19.46781600   
   312       H          7.43281600     23.56934400      8.48948900   
   313       H         13.74878400     20.12733400     19.49910700   
   314       H         14.10983400     19.76628400     10.58839300   
   315       H          4.57089300      1.71378400     15.97766600   
   316       H         15.97766600      4.57089300      1.71378400   
   317       H         19.49910700     13.74878400     20.12733400   
   318       H         20.12733400     19.49910700     13.74878400   
   319       H          1.71378400     15.97766600      4.57089300   
   320       H          2.07483400     16.33871600     13.48160700   
   321       H          4.30371600     22.62339300     21.99516600   
   322       H         21.99516600      4.30371600     22.62339300   
   323       H         22.62339300     21.99516600      4.30371600   
   324       H         16.33871600     13.48160700      2.07483400   
   325       H         13.48160700      2.07483400     16.33871600   
   326       H          3.94266600      7.46410700     22.35621600   
   327       H         10.32121600      8.09233400     16.60589300   
   328       H         22.35621600      3.94266600      7.46410700   
   329       H         16.60589300     10.32121600      8.09233400   
   330       H          7.46410700     22.35621600      3.94266600   
   331       H          8.09233400     16.60589300     10.32121600   
   332       H         19.76628400     10.58839300     14.10983400   
   333       H          1.44660700      9.96016600      7.73128400   
   334       H          9.96016600      7.73128400      1.44660700   
   335       H         10.58839300     14.10983400     19.76628400   
   336       H          7.73128400      1.44660700      9.96016600   
   337       H         14.00392600     17.89845200     20.33674300   
   338       H         11.88095200     20.02142600      9.75075700   
   339       H          3.73325700      1.96892600     18.20654800   
   340       H         18.20654800      3.73325700      1.96892600   
   341       H         20.33674300     14.00392600     17.89845200   
   342       H         17.89845200     20.33674300     14.00392600   
   343       H          1.96892600     18.20654800      3.73325700   
   344       H         23.91595200     16.08357400     14.31924300   
   345       H          4.04857400     21.78575700      0.15404800   
   346       H          0.15404800      4.04857400     21.78575700   
   347       H         21.78575700      0.15404800      4.04857400   
   348       H         16.08357400     14.31924300     23.91595200   
   349       H         14.31924300     23.91595200     16.08357400   
   350       H          6.17154800      8.30174300     22.10107400   
   351       H         10.06607400      5.86345200     15.76825700   
   352       H         22.10107400      6.17154800      8.30174300   
   353       H         15.76825700     10.06607400      5.86345200   
   354       H          8.30174300     22.10107400      6.17154800   
   355       H          5.86345200     15.76825700     10.06607400   
   356       H         20.02142600      9.75075700     11.88095200   
   357       H          2.28424300     12.18904800      7.98642600   
   358       H         12.18904800      7.98642600      2.28424300   
   359       H          9.75075700     11.88095200     20.02142600   
   360       H          7.98642600      2.28424300     12.18904800   
   361      Tv         24.07000000      0.00000000      0.00000000   
   362      Tv          0.00000000     24.07000000      0.00000000   
   363      Tv          0.00000000      0.00000000     24.07000000   


                   THE SYSTEM IS A SOLID


                UNIT CELL TRANSLATION VECTORS

              X                Y              Z
    T1 =    24.0700000      0.0000000      0.0000000
    T2 =     0.0000000     24.0700000      0.0000000
    T3 =     0.0000000      0.0000000     24.0700000


          CARTESIAN COORDINATES 

    NO.       ATOM           X           Y           Z

     1         N         19.2993     15.8910     20.0335
     2         N          9.8735      1.2468     10.0540
     3         N          4.0365      7.2643     20.2140
     4         N         20.2140      4.0365      7.2643
     5         N         20.0335     19.2993     15.8910
     6         N         15.8910     20.0335     19.2993
     7         N          7.2643     20.2140      4.0365
     8         N         21.9085     10.7882     14.0160
     9         N         22.8232     22.0890      2.1615
    10         N          2.1615     22.8232     22.0890
    11         N         22.0890      2.1615     22.8232
    12         N         10.7882     14.0160     21.9085
    13         N         14.0160     21.9085     10.7882
    14         N          8.1790      7.9985     16.8057
    15         N          4.7707      3.8560     16.0715
    16         N         16.8057      8.1790      7.9985
    17         N         16.0715      4.7707      3.8560
    18         N          7.9985     16.8057      8.1790
    19         N          3.8560     16.0715      4.7707
    20         N          1.2468     10.0540      9.8735
    21         N          1.9810     14.1965     13.2818
    22         N         14.1965     13.2818      1.9810
    23         N         10.0540      9.8735      1.2468
    24         N         13.2818      1.9810     14.1965
    25         C         17.7661     14.4613     21.2297
    26         C          8.4438     23.7836      8.8578
    27         C          2.8403      5.7311     21.6437
    28         C         21.6437      2.8403      5.7311
    29         C         21.2297     17.7661     14.4613
    30         C         14.4613     21.2297     17.7661
    31         C          5.7311     21.6437      2.8403
    32         C         20.4788     12.3214     15.2122
    33         C          0.2864     20.8928      3.5912
    34         C          3.5912      0.2864     20.8928
    35         C         20.8928      3.5912      0.2864
    36         C         12.3214     15.2122     20.4788
    37         C         15.2122     20.4788     12.3214
    38         C          9.6087      9.1947     18.3389
    39         C          6.3039      2.4263     14.8753
    40         C         18.3389      9.6087      9.1947
    41         C         14.8753      6.3039      2.4263
    42         C          9.1947     18.3389      9.6087
    43         C          2.4263     14.8753      6.3039
    44         C         23.7836      8.8578      8.4438
    45         C          3.1772     15.6262     11.7486
    46         C         15.6262     11.7486      3.1772
    47         C          8.8578      8.4438     23.7836
    48         C         11.7486      3.1772     15.6262
    49         C         18.9407     14.6370     20.4210
    50         C          8.6195      0.8882      9.6665
    51         C          3.6490      6.9057     21.4680
    52         C         21.4680      3.6490      6.9057
    53         C         20.4210     18.9407     14.6370
    54         C         14.6370     20.4210     18.9407
    55         C          6.9057     21.4680      3.6490
    56         C         20.6545     11.1468     14.4035
    57         C         23.1818     21.7015      3.4155
    58         C          3.4155     23.1818     21.7015
    59         C         21.7015      3.4155     23.1818
    60         C         11.1468     14.4035     20.6545
    61         C         14.4035     20.6545     11.1468
    62         C          9.4330      8.3860     17.1643
    63         C          5.1293      2.6020     15.6840
    64         C         17.1643      9.4330      8.3860
    65         C         15.6840      5.1293      2.6020
    66         C          8.3860     17.1643      9.4330
    67         C          2.6020     15.6840      5.1293
    68         C          0.8882      9.6665      8.6195
    69         C          2.3685     15.4505     12.9232
    70         C         15.4505     12.9232      2.3685
    71         C          9.6665      8.6195      0.8882
    72         C         12.9232      2.3685     15.4505
    73         C         14.7934     17.3039     20.8133
    74         C         11.2864     20.8109      9.2742
    75         C          3.2567      2.7584     18.8011
    76         C         18.8011      3.2567      2.7584
    77         C         20.8133     14.7934     17.3039
    78         C         17.3039     20.8133     14.7934
    79         C          2.7584     18.8011      3.2567
    80         C         23.3214     15.2941     14.7958
    81         C          3.2591     21.3092      0.7486
    82         C          0.7486      3.2591     21.3092
    83         C         21.3092      0.7486      3.2591
    84         C         15.2941     14.7958     23.3214
    85         C         14.7958     23.3214     15.2941
    86         C          6.7661      8.7783     21.3116
    87         C          9.2766      5.2689     15.2917
    88         C         21.3116      6.7661      8.7783
    89         C         15.2917      9.2766      5.2689
    90         C          8.7783     21.3116      6.7661
    91         C          5.2689     15.2917      9.2766
    92         C         20.8109      9.2742     11.2864
    93         C          2.7608     12.7836      8.7759
    94         C         12.7836      8.7759      2.7608
    95         C          9.2742     11.2864     20.8109
    96         C          8.7759      2.7608     12.7836
    97         C         15.5588     15.3831     22.1420
    98         C          9.3656     21.5763      7.9455
    99         C          1.9280      3.5238     20.7219
   100         C         20.7219      1.9280      3.5238
   101         C         22.1420     15.5588     15.3831
   102         C         15.3831     22.1420     15.5588
   103         C          3.5238     20.7219      1.9280
   104         C         21.4006     14.5287     16.1245
   105         C          2.4937     19.9805      2.6694
   106         C          2.6694      2.4937     19.9805
   107         C         19.9805      2.6694      2.4937
   108         C         14.5287     16.1245     21.4006
   109         C         16.1245     21.4006     14.5287
   110         C          8.6869     10.1070     20.5462
   111         C          8.5112      3.3481     13.9630
   112         C         20.5462      8.6869     10.1070
   113         C         13.9630      8.5112      3.3481
   114         C         10.1070     20.5462      8.6869
   115         C          3.3481     13.9630      8.5112
   116         C         21.5763      7.9455      9.3656
   117         C          4.0895     14.7044      9.5413
   118         C         14.7044      9.5413      4.0895
   119         C          7.9455      9.3656     21.5763
   120         C          9.5413      4.0895     14.7044
   121         C         19.2175     19.9805     17.9851
   122         C         13.9630      1.1650     12.1024
   123         C          6.0849      7.1825     16.1245
   124         C         16.1245      6.0849      7.1825
   125         C         17.9851     19.2175     19.9805
   126         C         19.9805     17.9851     19.2175
   127         C          7.1825     16.1245      6.0849
   128         C          1.9280     10.8700     11.9676
   129         C         22.9050      0.0674     22.1420
   130         C         22.1420     22.9050      0.0674
   131         C          0.0674     22.1420     22.9050
   132         C         10.8700     11.9676      1.9280
   133         C         11.9676      1.9280     10.8700
   134         C          4.0895      5.9501     16.8875
   135         C          4.8525      7.9455     18.1199
   136         C         16.8875      4.0895      5.9501
   137         C         18.1199      4.8525      7.9455
   138         C          5.9501     16.8875      4.0895
   139         C          7.9455     18.1199      4.8525
   140         C          1.1650     12.1024     13.9630
   141         C         24.0026     10.1070     13.2000
   142         C         10.1070     13.2000     24.0026
   143         C         12.1024     13.9630      1.1650
   144         C         13.2000     24.0026     10.1070
   145         C         18.4569     16.9453     20.5630
   146         C         10.9278      0.4044      9.5245
   147         C          3.5070      6.4219     19.1597
   148         C         19.1597      3.5070      6.4219
   149         C         20.5630     18.4569     16.9453
   150         C         16.9453     20.5630     18.4569
   151         C          6.4219     19.1597      3.5070
   152         C         22.9628     11.6306     14.5455
   153         C         23.6656     21.5595      1.1072
   154         C          1.1072     23.6656     21.5595
   155         C         21.5595      1.1072     23.6656
   156         C         11.6306     14.5455     22.9628
   157         C         14.5455     22.9628     11.6306
   158         C          7.1247      8.5280     17.6481
   159         C          5.6131      4.9103     15.5420
   160         C         17.6481      7.1247      8.5280
   161         C         15.5420      5.6131      4.9103
   162         C          8.5280     17.6481      7.1247
   163         C          4.9103     15.5420      5.6131
   164         C          0.4044      9.5245     10.9278
   165         C          2.5105     13.1422     12.4394
   166         C         13.1422     12.4394      2.5105
   167         C          9.5245     10.9278      0.4044
   168         C         12.4394      2.5105     13.1422
   169         C         16.5481     19.0201     20.1899
   170         C         13.0026     22.5656      9.8976
   171         C          3.8801      4.5131     17.0849
   172         C         17.0849      3.8801      4.5131
   173         C         20.1899     16.5481     19.0201
   174         C         19.0201     20.1899     16.5481
   175         C          4.5131     17.0849      3.8801
   176         C          0.9676     13.5394     14.1724
   177         C          1.5044     21.9326     23.1024
   178         C         23.1024      1.5044     21.9326
   179         C         21.9326     23.1024      1.5044
   180         C         13.5394     14.1724      0.9676
   181         C         14.1724      0.9676     13.5394
   182         C          5.0499      8.1549     19.5569
   183         C          7.5219      6.9851     15.9151
   184         C         19.5569      5.0499      8.1549
   185         C         15.9151      7.5219      6.9851
   186         C          8.1549     19.5569      5.0499
   187         C          6.9851     15.9151      7.5219
   188         C         22.5656      9.8976     13.0026
   189         C          2.1374     11.0674     10.5306
   190         C         11.0674     10.5306      2.1374
   191         C          9.8976     13.0026     22.5656
   192         C         10.5306      2.1374     11.0674
   193         C         23.2251     21.9904     23.9087
   194         C         15.9729      5.1726      6.1788
   195         C          0.1613     11.1901     14.1146
   196         C         14.1146      0.1613     11.1901
   197         C         23.9087     23.2251     21.9904
   198         C         21.9904     23.9087     23.2251
   199         C         11.1901     14.1146      0.1613
   200         C          3.9379      6.8624     17.8912
   201         C         18.8974     18.2138     20.1321
   202         C         20.1321     18.8974     18.2138
   203         C         18.2138     20.1321     18.8974
   204         C          6.8624     17.8912      3.9379
   205         C         17.8912      3.9379      6.8624
   206         C          2.0796     11.8737     12.8799
   207         C          0.8449      9.9554     12.1963
   208         C         12.8799      2.0796     11.8737
   209         C         12.1963      0.8449      9.9554
   210         C         11.8737     12.8799      2.0796
   211         C          9.9554     12.1963      0.8449
   212         C          5.1726      6.1788     15.9729
   213         C          5.8562      8.0971     17.2076
   214         C          8.0971     17.2076      5.8562
   215         C          6.1788     15.9729      5.1726
   216         C         17.2076      5.8562      8.0971
   217         C         17.1667     16.7912     21.0083
   218         C         10.7737     23.1842      9.0792
   219         C          3.0617      5.1317     19.3138
   220         C         19.3138      3.0617      5.1317
   221         C         21.0083     17.1667     16.7912
   222         C         16.7912     21.0083     17.1667
   223         C          5.1317     19.3138      3.0617
   224         C         22.8087     12.9208     14.9908
   225         C          0.8858     21.1142      1.2613
   226         C          1.2613      0.8858     21.1142
   227         C         21.1142      1.2613      0.8858
   228         C         12.9208     14.9908     22.8087
   229         C         14.9908     22.8087     12.9208
   230         C          7.2788      8.9733     18.9383
   231         C          6.9033      4.7562     15.0967
   232         C         18.9383      7.2788      8.9733
   233         C         15.0967      6.9033      4.7562
   234         C          8.9733     18.9383      7.2788
   235         C          4.7562     15.0967      6.9033
   236         C         23.1842      9.0792     10.7737
   237         C          2.9558     13.2963     11.1492
   238         C         13.2963     11.1492      2.9558
   239         C          9.0792     10.7737     23.1842
   240         C         11.1492      2.9558     13.2963
   241         C         16.1630     17.8142     20.7291
   242         C         11.7967     22.1805      9.3584
   243         C          3.3409      4.1280     18.2908
   244         C         18.2908      3.3409      4.1280
   245         C         20.7291     16.1630     17.8142
   246         C         17.8142     20.7291     16.1630
   247         C          4.1280     18.2908      3.3409
   248         C         23.8317     13.9245     14.7116
   249         C          1.8895     21.3934      0.2383
   250         C          0.2383      1.8895     21.3934
   251         C         21.3934      0.2383      1.8895
   252         C         13.9245     14.7116     23.8317
   253         C         14.7116     23.8317     13.9245
   254         C          6.2558      8.6941     19.9420
   255         C          7.9070      5.7792     15.3759
   256         C         19.9420      6.2558      8.6941
   257         C         15.3759      7.9070      5.7792
   258         C          8.6941     19.9420      6.2558
   259         C          5.7792     15.3759      7.9070
   260         C         22.1805      9.3584     11.7967
   261         C          2.6766     12.2733     10.1455
   262         C         12.2733     10.1455      2.6766
   263         C          9.3584     11.7967     22.1805
   264         C         10.1455      2.6766     12.2733
   265         C         16.8803     15.4770     21.4873
   266         C          9.4595     22.8978      8.6002
   267         C          2.5827      4.8453     20.6280
   268         C         20.6280      2.5827      4.8453
   269         C         21.4873     16.8803     15.4770
   270         C         15.4770     21.4873     16.8803
   271         C          4.8453     20.6280      2.5827
   272         C         21.4945     13.2072     15.4698
   273         C          1.1722     20.6352      2.5755
   274         C          2.5755      1.1722     20.6352
   275         C         20.6352      2.5755      1.1722
   276         C         13.2072     15.4698     21.4945
   277         C         15.4698     21.4945     13.2072
   278         C          8.5930      9.4523     19.2247
   279         C          7.1897      3.4420     14.6177
   280         C         19.2247      8.5930      9.4523
   281         C         14.6177      7.1897      3.4420
   282         C          9.4523     19.2247      8.5930
   283         C          3.4420     14.6177      7.1897
   284         C         22.8978      8.6002      9.4595
   285         C          3.4348     14.6105     10.8628
   286         C         14.6105     10.8628      3.4348
   287         C          8.6002      9.4595     22.8978
   288         C         10.8628      3.4348     14.6105
   289         H         13.4503     21.5980     17.5518
   290         H         15.5805     19.4678     12.5357
   291         H          6.5182      1.4153     14.5070
   292         H         14.5070      6.5182      1.4153
   293         H         17.5518     13.4503     21.5980
   294         H         21.5980     17.5518     13.4503
   295         H          1.4153     14.5070      6.5182
   296         H          3.5455     16.6372     11.5343
   297         H          4.6022      0.5007     20.5245
   298         H         20.5245      4.6022      0.5007
   299         H          0.5007     20.5245      4.6022
   300         H         16.6372     11.5343      3.5455
   301         H         11.5343      3.5455     16.6372
   302         H          2.4720      5.5168     22.6547
   303         H         10.6197      9.5630     18.5532
   304         H         22.6547      2.4720      5.5168
   305         H         18.5532     10.6197      9.5630
   306         H          5.5168     22.6547      2.4720
   307         H          9.5630     18.5532     10.6197
   308         H         19.4678     12.5357     15.5805
   309         H         23.5693      8.4895      7.4328
   310         H          8.4895      7.4328     23.5693
   311         H         12.5357     15.5805     19.4678
   312         H          7.4328     23.5693      8.4895
   313         H         13.7488     20.1273     19.4991
   314         H         14.1098     19.7663     10.5884
   315         H          4.5709      1.7138     15.9777
   316         H         15.9777      4.5709      1.7138
   317         H         19.4991     13.7488     20.1273
   318         H         20.1273     19.4991     13.7488
   319         H          1.7138     15.9777      4.5709
   320         H          2.0748     16.3387     13.4816
   321         H          4.3037     22.6234     21.9952
   322         H         21.9952      4.3037     22.6234
   323         H         22.6234     21.9952      4.3037
   324         H         16.3387     13.4816      2.0748
   325         H         13.4816      2.0748     16.3387
   326         H          3.9427      7.4641     22.3562
   327         H         10.3212      8.0923     16.6059
   328         H         22.3562      3.9427      7.4641
   329         H         16.6059     10.3212      8.0923
   330         H          7.4641     22.3562      3.9427
   331         H          8.0923     16.6059     10.3212
   332         H         19.7663     10.5884     14.1098
   333         H          1.4466      9.9602      7.7313
   334         H          9.9602      7.7313      1.4466
   335         H         10.5884     14.1098     19.7663
   336         H          7.7313      1.4466      9.9602
   337         H         14.0039     17.8985     20.3367
   338         H         11.8810     20.0214      9.7508
   339         H          3.7333      1.9689     18.2065
   340         H         18.2065      3.7333      1.9689
   341         H         20.3367     14.0039     17.8985
   342         H         17.8985     20.3367     14.0039
   343         H          1.9689     18.2065      3.7333
   344         H         23.9160     16.0836     14.3192
   345         H          4.0486     21.7858      0.1540
   346         H          0.1540      4.0486     21.7858
   347         H         21.7858      0.1540      4.0486
   348         H         16.0836     14.3192     23.9160
   349         H         14.3192     23.9160     16.0836
   350         H          6.1715      8.3017     22.1011
   351         H         10.0661      5.8635     15.7683
   352         H         22.1011      6.1715      8.3017
   353         H         15.7683     10.0661      5.8635
   354         H          8.3017     22.1011      6.1715
   355         H          5.8635     15.7683     10.0661
   356         H         20.0214      9.7508     11.8810
   357         H          2.2842     12.1890      7.9864
   358         H         12.1890      7.9864      2.2842
   359         H          9.7508     11.8810     20.0214
   360         H          7.9864      2.2842     12.1890

 General Reference for PM7:
 "Optimization of Parameters for Semiempirical Methods VI: More Modifications to the 
 NDDO Approximations and Re-optimization of Parameters", J. J. P. Stewart, J. Mol. Mod., 1:32, 19 (2013)
 https://link.springer.com/article/10.1007/s00894-012-1667-x

           Empirical Formula: C264 H72 N24  =   360 atoms



      RHF CALCULATION, NO. OF DOUBLY OCCUPIED LEVELS = 624


 -------------------------------------------------------------------------------
 PM7 CHARGE=0 NOOPT




     NO PARAMETERS MARKED FOR OPTIMIZATION, SO 1SCF WAS USED  
     SCF FIELD WAS ACHIEVED                                   


                              PM7 CALCULATION
                                                       MOPAC v22.1.0 Linux
                                                       Wed Jan 31 15:27:22 2024




          FINAL HEAT OF FORMATION =       3124.74619 KCAL/MOL =   13073.93804 KJ/MOL
          H.o.F. per unit cell    =        130.19776 KCAL, for 24 unit cells, unit cell = C11 H3 N1



          IONIZATION POTENTIAL    =          6.433231 EV
          HOMO LUMO ENERGIES (EV) =         -6.433 -2.473
          NO. OF FILLED LEVELS    =        624
          MOLECULAR WEIGHT        =       3579.6336

                   THE SYSTEM IS A SOLID


                UNIT CELL TRANSLATION VECTORS

              X                Y              Z
    T1 =    24.0700000      0.0000000      0.0000000
    T2 =     0.0000000     24.0700000      0.0000000
    T3 =     0.0000000      0.0000000     24.0700000

          VOLUME OF UNIT CELL     =      13945.313 CUBIC ANGSTROMS

          DENSITY                 =          0.426 GRAMS/CC
                              A   =         24.070 ANGSTROMS
                              B   =         24.070 ANGSTROMS
                              C   =         24.070 ANGSTROMS
                            ALPHA =         90.000 DEGREES
                            BETA  =         90.000 DEGREES
                            GAMMA =         90.000 DEGREES



          SCF CALCULATIONS        =          1

          WALL-CLOCK TIME         =          9 MINUTES AND 2.004 SECONDS
          COMPUTATION TIME        =          9 MINUTES AND 1.999 SECONDS




   ATOM   CHEMICAL          X               Y               Z
  NUMBER   SYMBOL      (ANGSTROMS)     (ANGSTROMS)     (ANGSTROMS)

     1       N         19.29932600     15.89101400     20.03346100   
     2       N          9.87351400      1.24682600     10.05403900   
     3       N          4.03653900      7.26432600     20.21398600   
     4       N         20.21398600      4.03653900      7.26432600   
     5       N         20.03346100     19.29932600     15.89101400   
     6       N         15.89101400     20.03346100     19.29932600   
     7       N          7.26432600     20.21398600      4.03653900   
     8       N         21.90851400     10.78817400     14.01596100   
     9       N         22.82317400     22.08903900      2.16148600   
    10       N          2.16148600     22.82317400     22.08903900   
    11       N         22.08903900      2.16148600     22.82317400   
    12       N         10.78817400     14.01596100     21.90851400   
    13       N         14.01596100     21.90851400     10.78817400   
    14       N          8.17898600      7.99846100     16.80567400   
    15       N          4.77067400      3.85601400     16.07153900   
    16       N         16.80567400      8.17898600      7.99846100   
    17       N         16.07153900      4.77067400      3.85601400   
    18       N          7.99846100     16.80567400      8.17898600   
    19       N          3.85601400     16.07153900      4.77067400   
    20       N          1.24682600     10.05403900      9.87351400   
    21       N          1.98096100     14.19648600     13.28182600   
    22       N         14.19648600     13.28182600      1.98096100   
    23       N         10.05403900      9.87351400      1.24682600   
    24       N         13.28182600      1.98096100     14.19648600   
    25       C         17.76606700     14.46125600     21.22974000   
    26       C          8.44375600     23.78356700      8.85776000   
    27       C          2.84026000      5.73106700     21.64374400   
    28       C         21.64374400      2.84026000      5.73106700   
    29       C         21.22974000     17.76606700     14.46125600   
    30       C         14.46125600     21.22974000     17.76606700   
    31       C          5.73106700     21.64374400      2.84026000   
    32       C         20.47875600     12.32143300     15.21224000   
    33       C          0.28643300     20.89276000      3.59124400   
    34       C          3.59124400      0.28643300     20.89276000   
    35       C         20.89276000      3.59124400      0.28643300   
    36       C         12.32143300     15.21224000     20.47875600   
    37       C         15.21224000     20.47875600     12.32143300   
    38       C          9.60874400      9.19474000     18.33893300   
    39       C          6.30393300      2.42625600     14.87526000   
    40       C         18.33893300      9.60874400      9.19474000   
    41       C         14.87526000      6.30393300      2.42625600   
    42       C          9.19474000     18.33893300      9.60874400   
    43       C          2.42625600     14.87526000      6.30393300   
    44       C         23.78356700      8.85776000      8.44375600   
    45       C          3.17724000     15.62624400     11.74856700   
    46       C         15.62624400     11.74856700      3.17724000   
    47       C          8.85776000      8.44375600     23.78356700   
    48       C         11.74856700      3.17724000     15.62624400   
    49       C         18.94068300     14.63696700     20.42098800   
    50       C          8.61946700      0.88818300      9.66651200   
    51       C          3.64901200      6.90568300     21.46803300   
    52       C         21.46803300      3.64901200      6.90568300   
    53       C         20.42098800     18.94068300     14.63696700   
    54       C         14.63696700     20.42098800     18.94068300   
    55       C          6.90568300     21.46803300      3.64901200   
    56       C         20.65446700     11.14681700     14.40348800   
    57       C         23.18181700     21.70151200      3.41553300   
    58       C          3.41553300     23.18181700     21.70151200   
    59       C         21.70151200      3.41553300     23.18181700   
    60       C         11.14681700     14.40348800     20.65446700   
    61       C         14.40348800     20.65446700     11.14681700   
    62       C          9.43303300      8.38598800     17.16431700   
    63       C          5.12931700      2.60196700     15.68401200   
    64       C         17.16431700      9.43303300      8.38598800   
    65       C         15.68401200      5.12931700      2.60196700   
    66       C          8.38598800     17.16431700      9.43303300   
    67       C          2.60196700     15.68401200      5.12931700   
    68       C          0.88818300      9.66651200      8.61946700   
    69       C          2.36848800     15.45053300     12.92318300   
    70       C         15.45053300     12.92318300      2.36848800   
    71       C          9.66651200      8.61946700      0.88818300   
    72       C         12.92318300      2.36848800     15.45053300   
    73       C         14.79342200     17.30392300     20.81332900   
    74       C         11.28642300     20.81092200      9.27417100   
    75       C          3.25667100      2.75842200     18.80107700   
    76       C         18.80107700      3.25667100      2.75842200   
    77       C         20.81332900     14.79342200     17.30392300   
    78       C         17.30392300     20.81332900     14.79342200   
    79       C          2.75842200     18.80107700      3.25667100   
    80       C         23.32142300     15.29407800     14.79582900   
    81       C          3.25907800     21.30917100      0.74857700   
    82       C          0.74857700      3.25907800     21.30917100   
    83       C         21.30917100      0.74857700      3.25907800   
    84       C         15.29407800     14.79582900     23.32142300   
    85       C         14.79582900     23.32142300     15.29407800   
    86       C          6.76607700      8.77832900     21.31157800   
    87       C          9.27657800      5.26892300     15.29167100   
    88       C         21.31157800      6.76607700      8.77832900   
    89       C         15.29167100      9.27657800      5.26892300   
    90       C          8.77832900     21.31157800      6.76607700   
    91       C          5.26892300     15.29167100      9.27657800   
    92       C         20.81092200      9.27417100     11.28642300   
    93       C          2.76082900     12.78357700      8.77592200   
    94       C         12.78357700      8.77592200      2.76082900   
    95       C          9.27417100     11.28642300     20.81092200   
    96       C          8.77592200      2.76082900     12.78357700   
    97       C         15.55884800     15.38313700     22.14199300   
    98       C          9.36563700     21.57634800      7.94550700   
    99       C          1.92800700      3.52384800     20.72186300   
   100       C         20.72186300      1.92800700      3.52384800   
   101       C         22.14199300     15.55884800     15.38313700   
   102       C         15.38313700     22.14199300     15.55884800   
   103       C          3.52384800     20.72186300      1.92800700   
   104       C         21.40063700     14.52865200     16.12449300   
   105       C          2.49365200     19.98050700      2.66936300   
   106       C          2.66936300      2.49365200     19.98050700   
   107       C         19.98050700      2.66936300      2.49365200   
   108       C         14.52865200     16.12449300     21.40063700   
   109       C         16.12449300     21.40063700     14.52865200   
   110       C          8.68686300     10.10699300     20.54615200   
   111       C          8.51115200      3.34813700     13.96300700   
   112       C         20.54615200      8.68686300     10.10699300   
   113       C         13.96300700      8.51115200      3.34813700   
   114       C         10.10699300     20.54615200      8.68686300   
   115       C          3.34813700     13.96300700      8.51115200   
   116       C         21.57634800      7.94550700      9.36563700   
   117       C          4.08949300     14.70436300      9.54134800   
   118       C         14.70436300      9.54134800      4.08949300   
   119       C          7.94550700      9.36563700     21.57634800   
   120       C          9.54134800      4.08949300     14.70436300   
   121       C         19.21748800     19.98050700     17.98510400   
   122       C         13.96300700      1.16498800     12.10239600   
   123       C          6.08489600      7.18248800     16.12449300   
   124       C         16.12449300      6.08489600      7.18248800   
   125       C         17.98510400     19.21748800     19.98050700   
   126       C         19.98050700     17.98510400     19.21748800   
   127       C          7.18248800     16.12449300      6.08489600   
   128       C          1.92800700     10.87001200     11.96760400   
   129       C         22.90501200      0.06739600     22.14199300   
   130       C         22.14199300     22.90501200      0.06739600   
   131       C          0.06739600     22.14199300     22.90501200   
   132       C         10.87001200     11.96760400      1.92800700   
   133       C         11.96760400      1.92800700     10.87001200   
   134       C          4.08949300      5.95010400     16.88751200   
   135       C          4.85251200      7.94550700     18.11989600   
   136       C         16.88751200      4.08949300      5.95010400   
   137       C         18.11989600      4.85251200      7.94550700   
   138       C          5.95010400     16.88751200      4.08949300   
   139       C          7.94550700     18.11989600      4.85251200   
   140       C          1.16498800     12.10239600     13.96300700   
   141       C         24.00260400     10.10699300     13.19998800   
   142       C         10.10699300     13.19998800     24.00260400   
   143       C         12.10239600     13.96300700      1.16498800   
   144       C         13.19998800     24.00260400     10.10699300   
   145       C         18.45687600     16.94528000     20.56300100   
   146       C         10.92778000      0.40437600      9.52449900   
   147       C          3.50699900      6.42187600     19.15972000   
   148       C         19.15972000      3.50699900      6.42187600   
   149       C         20.56300100     18.45687600     16.94528000   
   150       C         16.94528000     20.56300100     18.45687600   
   151       C          6.42187600     19.15972000      3.50699900   
   152       C         22.96278000     11.63062400     14.54550100   
   153       C         23.66562400     21.55949900      1.10722000   
   154       C          1.10722000     23.66562400     21.55949900   
   155       C         21.55949900      1.10722000     23.66562400   
   156       C         11.63062400     14.54550100     22.96278000   
   157       C         14.54550100     22.96278000     11.63062400   
   158       C          7.12472000      8.52800100     17.64812400   
   159       C          5.61312400      4.91028000     15.54199900   
   160       C         17.64812400      7.12472000      8.52800100   
   161       C         15.54199900      5.61312400      4.91028000   
   162       C          8.52800100     17.64812400      7.12472000   
   163       C          4.91028000     15.54199900      5.61312400   
   164       C          0.40437600      9.52449900     10.92778000   
   165       C          2.51050100     13.14222000     12.43937600   
   166       C         13.14222000     12.43937600      2.51050100   
   167       C          9.52449900     10.92778000      0.40437600   
   168       C         12.43937600      2.51050100     13.14222000   
   169       C         16.54812500     19.02011400     20.18991600   
   170       C         13.00261400     22.56562500      9.89758400   
   171       C          3.88008400      4.51312500     17.08488600   
   172       C         17.08488600      3.88008400      4.51312500   
   173       C         20.18991600     16.54812500     19.02011400   
   174       C         19.02011400     20.18991600     16.54812500   
   175       C          4.51312500     17.08488600      3.88008400   
   176       C          0.96761400     13.53937500     14.17241600   
   177       C          1.50437500     21.93258400     23.10238600   
   178       C         23.10238600      1.50437500     21.93258400   
   179       C         21.93258400     23.10238600      1.50437500   
   180       C         13.53937500     14.17241600      0.96761400   
   181       C         14.17241600      0.96761400     13.53937500   
   182       C          5.04988600      8.15491600     19.55687500   
   183       C          7.52187500      6.98511400     15.91508400   
   184       C         19.55687500      5.04988600      8.15491600   
   185       C         15.91508400      7.52187500      6.98511400   
   186       C          8.15491600     19.55687500      5.04988600   
   187       C          6.98511400     15.91508400      7.52187500   
   188       C         22.56562500      9.89758400     13.00261400   
   189       C          2.13741600     11.06738600     10.53062500   
   190       C         11.06738600     10.53062500      2.13741600   
   191       C          9.89758400     13.00261400     22.56562500   
   192       C         10.53062500      2.13741600     11.06738600   
   193       C         23.22514300     21.99035200     23.90873100   
   194       C         15.97285200      5.17264300      6.17876900   
   195       C          0.16126900     11.19014300     14.11464800   
   196       C         14.11464800      0.16126900     11.19014300   
   197       C         23.90873100     23.22514300     21.99035200   
   198       C         21.99035200     23.90873100     23.22514300   
   199       C         11.19014300     14.11464800      0.16126900   
   200       C          3.93785200      6.86235700     17.89123100   
   201       C         18.89735700     18.21376900     20.13214800   
   202       C         20.13214800     18.89735700     18.21376900   
   203       C         18.21376900     20.13214800     18.89735700   
   204       C          6.86235700     17.89123100      3.93785200   
   205       C         17.89123100      3.93785200      6.86235700   
   206       C          2.07964800     11.87373100     12.87985700   
   207       C          0.84485700      9.95535200     12.19626900   
   208       C         12.87985700      2.07964800     11.87373100   
   209       C         12.19626900      0.84485700      9.95535200   
   210       C         11.87373100     12.87985700      2.07964800   
   211       C          9.95535200     12.19626900      0.84485700   
   212       C          5.17264300      6.17876900     15.97285200   
   213       C          5.85623100      8.09714800     17.20764300   
   214       C          8.09714800     17.20764300      5.85623100   
   215       C          6.17876900     15.97285200      5.17264300   
   216       C         17.20764300      5.85623100      8.09714800   
   217       C         17.16672400     16.79123200     21.00829600   
   218       C         10.77373200     23.18422400      9.07920400   
   219       C          3.06170400      5.13172400     19.31376800   
   220       C         19.31376800      3.06170400      5.13172400   
   221       C         21.00829600     17.16672400     16.79123200   
   222       C         16.79123200     21.00829600     17.16672400   
   223       C          5.13172400     19.31376800      3.06170400   
   224       C         22.80873200     12.92077600     14.99079600   
   225       C          0.88577600     21.11420400      1.26126800   
   226       C          1.26126800      0.88577600     21.11420400   
   227       C         21.11420400      1.26126800      0.88577600   
   228       C         12.92077600     14.99079600     22.80873200   
   229       C         14.99079600     22.80873200     12.92077600   
   230       C          7.27876800      8.97329600     18.93827600   
   231       C          6.90327600      4.75623200     15.09670400   
   232       C         18.93827600      7.27876800      8.97329600   
   233       C         15.09670400      6.90327600      4.75623200   
   234       C          8.97329600     18.93827600      7.27876800   
   235       C          4.75623200     15.09670400      6.90327600   
   236       C         23.18422400      9.07920400     10.77373200   
   237       C          2.95579600     13.29626800     11.14922400   
   238       C         13.29626800     11.14922400      2.95579600   
   239       C          9.07920400     10.77373200     23.18422400   
   240       C         11.14922400      2.95579600     13.29626800   
   241       C         16.16300500     17.81420700     20.72908400   
   242       C         11.79670700     22.18050500      9.35841600   
   243       C          3.34091600      4.12800500     18.29079300   
   244       C         18.29079300      3.34091600      4.12800500   
   245       C         20.72908400     16.16300500     17.81420700   
   246       C         17.81420700     20.72908400     16.16300500   
   247       C          4.12800500     18.29079300      3.34091600   
   248       C         23.83170700     13.92449500     14.71158400   
   249       C          1.88949500     21.39341600      0.23829300   
   250       C          0.23829300      1.88949500     21.39341600   
   251       C         21.39341600      0.23829300      1.88949500   
   252       C         13.92449500     14.71158400     23.83170700   
   253       C         14.71158400     23.83170700     13.92449500   
   254       C          6.25579300      8.69408400     19.94199500   
   255       C          7.90699500      5.77920700     15.37591600   
   256       C         19.94199500      6.25579300      8.69408400   
   257       C         15.37591600      7.90699500      5.77920700   
   258       C          8.69408400     19.94199500      6.25579300   
   259       C          5.77920700     15.37591600      7.90699500   
   260       C         22.18050500      9.35841600     11.79670700   
   261       C          2.67658400     12.27329300     10.14550500   
   262       C         12.27329300     10.14550500      2.67658400   
   263       C          9.35841600     11.79670700     22.18050500   
   264       C         10.14550500      2.67658400     12.27329300   
   265       C         16.88029100     15.47701000     21.48728900   
   266       C          9.45951000     22.89779100      8.60021100   
   267       C          2.58271100      4.84529100     20.62799000   
   268       C         20.62799000      2.58271100      4.84529100   
   269       C         21.48728900     16.88029100     15.47701000   
   270       C         15.47701000     21.48728900     16.88029100   
   271       C          4.84529100     20.62799000      2.58271100   
   272       C         21.49451000     13.20720900     15.46978900   
   273       C          1.17220900     20.63521100      2.57549000   
   274       C          2.57549000      1.17220900     20.63521100   
   275       C         20.63521100      2.57549000      1.17220900   
   276       C         13.20720900     15.46978900     21.49451000   
   277       C         15.46978900     21.49451000     13.20720900   
   278       C          8.59299000      9.45228900     19.22470900   
   279       C          7.18970900      3.44201000     14.61771100   
   280       C         19.22470900      8.59299000      9.45228900   
   281       C         14.61771100      7.18970900      3.44201000   
   282       C          9.45228900     19.22470900      8.59299000   
   283       C          3.44201000     14.61771100      7.18970900   
   284       C         22.89779100      8.60021100      9.45951000   
   285       C          3.43478900     14.61049000     10.86279100   
   286       C         14.61049000     10.86279100      3.43478900   
   287       C          8.60021100      9.45951000     22.89779100   
   288       C         10.86279100      3.43478900     14.61049000   
   289       H         13.45031600     21.59801100     17.55184400   
   290       H         15.58051100     19.46781600     12.53565600   
   291       H          6.51815600      1.41531600     14.50698900   
   292       H         14.50698900      6.51815600      1.41531600   
   293       H         17.55184400     13.45031600     21.59801100   
   294       H         21.59801100     17.55184400     13.45031600   
   295       H          1.41531600     14.50698900      6.51815600   
   296       H          3.54551100     16.63718400     11.53434400   
   297       H          4.60218400      0.50065600     20.52448900   
   298       H         20.52448900      4.60218400      0.50065600   
   299       H          0.50065600     20.52448900      4.60218400   
   300       H         16.63718400     11.53434400      3.54551100   
   301       H         11.53434400      3.54551100     16.63718400   
   302       H          2.47198900      5.51684400     22.65468400   
   303       H         10.61968400      9.56301100     18.55315600   
   304       H         22.65468400      2.47198900      5.51684400   
   305       H         18.55315600     10.61968400      9.56301100   
   306       H          5.51684400     22.65468400      2.47198900   
   307       H          9.56301100     18.55315600     10.61968400   
   308       H         19.46781600     12.53565600     15.58051100   
   309       H         23.56934400      8.48948900      7.43281600   
   310       H          8.48948900      7.43281600     23.56934400   
   311       H         12.53565600     15.58051100     19.46781600   
   312       H          7.43281600     23.56934400      8.48948900   
   313       H         13.74878400     20.12733400     19.49910700   
   314       H         14.10983400     19.76628400     10.58839300   
   315       H          4.57089300      1.71378400     15.97766600   
   316       H         15.97766600      4.57089300      1.71378400   
   317       H         19.49910700     13.74878400     20.12733400   
   318       H         20.12733400     19.49910700     13.74878400   
   319       H          1.71378400     15.97766600      4.57089300   
   320       H          2.07483400     16.33871600     13.48160700   
   321       H          4.30371600     22.62339300     21.99516600   
   322       H         21.99516600      4.30371600     22.62339300   
   323       H         22.62339300     21.99516600      4.30371600   
   324       H         16.33871600     13.48160700      2.07483400   
   325       H         13.48160700      2.07483400     16.33871600   
   326       H          3.94266600      7.46410700     22.35621600   
   327       H         10.32121600      8.09233400     16.60589300   
   328       H         22.35621600      3.94266600      7.46410700   
   329       H         16.60589300     10.32121600      8.09233400   
   330       H          7.46410700     22.35621600      3.94266600   
   331       H          8.09233400     16.60589300     10.32121600   
   332       H         19.76628400     10.58839300     14.10983400   
   333       H          1.44660700      9.96016600      7.73128400   
   334       H          9.96016600      7.73128400      1.44660700   
   335       H         10.58839300     14.10983400     19.76628400   
   336       H          7.73128400      1.44660700      9.96016600   
   337       H         14.00392600     17.89845200     20.33674300   
   338       H         11.88095200     20.02142600      9.75075700   
   339       H          3.73325700      1.96892600     18.20654800   
   340       H         18.20654800      3.73325700      1.96892600   
   341       H         20.33674300     14.00392600     17.89845200   
   342       H         17.89845200     20.33674300     14.00392600   
   343       H          1.96892600     18.20654800      3.73325700   
   344       H         23.91595200     16.08357400     14.31924300   
   345       H          4.04857400     21.78575700      0.15404800   
   346       H          0.15404800      4.04857400     21.78575700   
   347       H         21.78575700      0.15404800      4.04857400   
   348       H         16.08357400     14.31924300     23.91595200   
   349       H         14.31924300     23.91595200     16.08357400   
   350       H          6.17154800      8.30174300     22.10107400   
   351       H         10.06607400      5.86345200     15.76825700   
   352       H         22.10107400      6.17154800      8.30174300   
   353       H         15.76825700     10.06607400      5.86345200   
   354       H          8.30174300     22.10107400      6.17154800   
   355       H          5.86345200     15.76825700     10.06607400   
   356       H         20.02142600      9.75075700     11.88095200   
   357       H          2.28424300     12.18904800      7.98642600   
   358       H         12.18904800      7.98642600      2.28424300   
   359       H          9.75075700     11.88095200     20.02142600   
   360       H          7.98642600      2.28424300     12.18904800   
   361      Tv         24.07000000      0.00000000      0.00000000   
   362      Tv          0.00000000     24.07000000      0.00000000   
   363      Tv          0.00000000      0.00000000     24.07000000   

                             CARTESIAN COORDINATES

   1    N       19.299326000    15.891014000    20.033461000
   2    N        9.873514000     1.246826000    10.054039000
   3    N        4.036539000     7.264326000    20.213986000
   4    N       20.213986000     4.036539000     7.264326000
   5    N       20.033461000    19.299326000    15.891014000
   6    N       15.891014000    20.033461000    19.299326000
   7    N        7.264326000    20.213986000     4.036539000
   8    N       21.908514000    10.788174000    14.015961000
   9    N       22.823174000    22.089039000     2.161486000
  10    N        2.161486000    22.823174000    22.089039000
  11    N       22.089039000     2.161486000    22.823174000
  12    N       10.788174000    14.015961000    21.908514000
  13    N       14.015961000    21.908514000    10.788174000
  14    N        8.178986000     7.998461000    16.805674000
  15    N        4.770674000     3.856014000    16.071539000
  16    N       16.805674000     8.178986000     7.998461000
  17    N       16.071539000     4.770674000     3.856014000
  18    N        7.998461000    16.805674000     8.178986000
  19    N        3.856014000    16.071539000     4.770674000
  20    N        1.246826000    10.054039000     9.873514000
  21    N        1.980961000    14.196486000    13.281826000
  22    N       14.196486000    13.281826000     1.980961000
  23    N       10.054039000     9.873514000     1.246826000
  24    N       13.281826000     1.980961000    14.196486000
  25    C       17.766067000    14.461256000    21.229740000
  26    C        8.443756000    23.783567000     8.857760000
  27    C        2.840260000     5.731067000    21.643744000
  28    C       21.643744000     2.840260000     5.731067000
  29    C       21.229740000    17.766067000    14.461256000
  30    C       14.461256000    21.229740000    17.766067000
  31    C        5.731067000    21.643744000     2.840260000
  32    C       20.478756000    12.321433000    15.212240000
  33    C        0.286433000    20.892760000     3.591244000
  34    C        3.591244000     0.286433000    20.892760000
  35    C       20.892760000     3.591244000     0.286433000
  36    C       12.321433000    15.212240000    20.478756000
  37    C       15.212240000    20.478756000    12.321433000
  38    C        9.608744000     9.194740000    18.338933000
  39    C        6.303933000     2.426256000    14.875260000
  40    C       18.338933000     9.608744000     9.194740000
  41    C       14.875260000     6.303933000     2.426256000
  42    C        9.194740000    18.338933000     9.608744000
  43    C        2.426256000    14.875260000     6.303933000
  44    C       23.783567000     8.857760000     8.443756000
  45    C        3.177240000    15.626244000    11.748567000
  46    C       15.626244000    11.748567000     3.177240000
  47    C        8.857760000     8.443756000    23.783567000
  48    C       11.748567000     3.177240000    15.626244000
  49    C       18.940683000    14.636967000    20.420988000
  50    C        8.619467000     0.888183000     9.666512000
  51    C        3.649012000     6.905683000    21.468033000
  52    C       21.468033000     3.649012000     6.905683000
  53    C       20.420988000    18.940683000    14.636967000
  54    C       14.636967000    20.420988000    18.940683000
  55    C        6.905683000    21.468033000     3.649012000
  56    C       20.654467000    11.146817000    14.403488000
  57    C       23.181817000    21.701512000     3.415533000
  58    C        3.415533000    23.181817000    21.701512000
  59    C       21.701512000     3.415533000    23.181817000
  60    C       11.146817000    14.403488000    20.654467000
  61    C       14.403488000    20.654467000    11.146817000
  62    C        9.433033000     8.385988000    17.164317000
  63    C        5.129317000     2.601967000    15.684012000
  64    C       17.164317000     9.433033000     8.385988000
  65    C       15.684012000     5.129317000     2.601967000
  66    C        8.385988000    17.164317000     9.433033000
  67    C        2.601967000    15.684012000     5.129317000
  68    C        0.888183000     9.666512000     8.619467000
  69    C        2.368488000    15.450533000    12.923183000
  70    C       15.450533000    12.923183000     2.368488000
  71    C        9.666512000     8.619467000     0.888183000
  72    C       12.923183000     2.368488000    15.450533000
  73    C       14.793422000    17.303923000    20.813329000
[...]
  293          H           0.176656        0.8233     0.82334
  294          H           0.175173        0.8248     0.82483
  295          H           0.177990        0.8220     0.82201
  296          H           0.177729        0.8223     0.82227
  297          H           0.173995        0.8260     0.82600
  298          H           0.179644        0.8204     0.82036
  299          H           0.178871        0.8211     0.82113
  300          H           0.176851        0.8231     0.82315
  301          H           0.180182        0.8198     0.81982
  302          H           0.180665        0.8193     0.81934
  303          H           0.176432        0.8236     0.82357
  304          H           0.174880        0.8251     0.82512
  305          H           0.179849        0.8202     0.82015
  306          H           0.177175        0.8228     0.82283
  307          H           0.178435        0.8216     0.82156
  308          H           0.179747        0.8203     0.82025
  309          H           0.175050        0.8250     0.82495
  310          H           0.177557        0.8224     0.82244
  311          H           0.177698        0.8223     0.82230
  312          H           0.177671        0.8223     0.82233
  313          H           0.179329        0.8207     0.82067
  314          H           0.177658        0.8223     0.82234
  315          H           0.178665        0.8213     0.82133
  316          H           0.177926        0.8221     0.82207
  317          H           0.177667        0.8223     0.82233
  318          H           0.178695        0.8213     0.82130
  319          H           0.178519        0.8215     0.82148
  320          H           0.179184        0.8208     0.82082
  321          H           0.177888        0.8221     0.82211
  322          H           0.178447        0.8216     0.82155
  323          H           0.179463        0.8205     0.82054
  324          H           0.178578        0.8214     0.82142
  325          H           0.178704        0.8213     0.82130
  326          H           0.179501        0.8205     0.82050
  327          H           0.177499        0.8225     0.82250
  328          H           0.178620        0.8214     0.82138
  329          H           0.179389        0.8206     0.82061
  330          H           0.178539        0.8215     0.82146
  331          H           0.178840        0.8212     0.82116
  332          H           0.178653        0.8213     0.82135
  333          H           0.177873        0.8221     0.82213
  334          H           0.178605        0.8214     0.82139
  335          H           0.178826        0.8212     0.82117
  336          H           0.179170        0.8208     0.82083
  337          H           0.156269        0.8437     0.84373
  338          H           0.158592        0.8414     0.84141
  339          H           0.163489        0.8365     0.83651
  340          H           0.154019        0.8460     0.84598
  341          H           0.154512        0.8455     0.84549
  342          H           0.162511        0.8375     0.83749
  343          H           0.156678        0.8433     0.84332
  344          H           0.161166        0.8388     0.83883
  345          H           0.160399        0.8396     0.83960
  346          H           0.151899        0.8481     0.84810
  347          H           0.160921        0.8391     0.83908
  348          H           0.158434        0.8416     0.84157
  349          H           0.152553        0.8474     0.84745
  350          H           0.155895        0.8441     0.84411
  351          H           0.153800        0.8462     0.84620
  352          H           0.162057        0.8379     0.83794
  353          H           0.157437        0.8426     0.84256
  354          H           0.158645        0.8414     0.84135
  355          H           0.157943        0.8421     0.84206
  356          H           0.153487        0.8465     0.84651
  357          H           0.158564        0.8414     0.84144
  358          H           0.157164        0.8428     0.84284
  359          H           0.158230        0.8418     0.84177
  360          H           0.161857        0.8381     0.83814


          ATOMIC ORBITAL ELECTRON POPULATIONS

     Atom    s        px        py        pz   
    1  N   1.53182   1.25287   1.09196   1.27802
    2  N   1.53135   1.09324   1.25560   1.28069
    3  N   1.53271   1.27651   1.25261   1.09264
    4  N   1.53044   1.09274   1.27907   1.25387
    5  N   1.53050   1.27955   1.25431   1.09287
    6  N   1.53254   1.09262   1.27717   1.25304
    7  N   1.53131   1.25337   1.09250   1.27826
    8  N   1.53271   1.09223   1.25231   1.27655
    9  N   1.53176   1.25536   1.28015   1.09323
   10  N   1.53018   1.09234   1.25232   1.27755
   11  N   1.53293   1.27643   1.09209   1.25213
   12  N   1.53170   1.25386   1.27866   1.09248
   13  N   1.53055   1.27766   1.09215   1.25234
   14  N   1.53188   1.09189   1.27810   1.25285
   15  N   1.53025   1.25441   1.09304   1.27970
   16  N   1.53235   1.25360   1.09274   1.27786
   17  N   1.53211   1.27778   1.25284   1.09199
   18  N   1.53175   1.27809   1.25344   1.09257
   19  N   1.53178   1.09234   1.27778   1.25304
   20  N   1.53074   1.25262   1.27785   1.09219
   21  N   1.53141   1.28016   1.09308   1.25517
   22  N   1.53143   1.09239   1.25376   1.27873
   23  N   1.53178   1.27838   1.09233   1.25356
   24  N   1.53294   1.25190   1.27598   1.09219
   25  C   1.07694   0.99900   1.09584   1.08138
   26  C   1.07666   1.09701   0.99966   1.08458
   27  C   1.07546   1.10255   1.00861   1.10185
   28  C   1.07782   1.09295   1.06961   0.99318
   29  C   1.07770   1.07104   0.99372   1.09336
   30  C   1.07565   1.10103   1.09969   1.00723
   31  C   1.07703   0.99813   1.09602   1.08049
   32  C   1.07592   1.10025   1.00595   1.09648
   33  C   1.07619   1.00275   1.09122   1.09881
   34  C   1.07833   1.09144   0.99054   1.06341
   35  C   1.07595   1.09638   1.10017   1.00607
   36  C   1.07650   1.00125   1.08699   1.09741
   37  C   1.07804   1.06690   1.09220   0.99222
   38  C   1.07699   1.09557   1.08062   0.99874
   39  C   1.07799   0.99202   1.09249   1.06738
   40  C   1.07575   1.00626   1.10056   1.09792
   41  C   1.07665   1.08553   1.00092   1.09702
   42  C   1.07654   1.08731   1.00126   1.09789
   43  C   1.07667   1.09733   1.08557   1.00062
   44  C   1.07778   0.99370   1.07027   1.09311
   45  C   1.07662   1.08522   1.09714   1.00006
   46  C   1.07682   1.09617   0.99924   1.08253
   47  C   1.07653   1.08666   1.09728   1.00122
   48  C   1.07578   1.00713   1.09882   1.10091
   49  C   1.09083   0.99862   0.89165   0.98626
   50  C   1.09175   0.89039   0.99647   0.98166
   51  C   1.09589   0.96019   0.98455   0.89075
   52  C   1.08830   0.89130   1.00001   1.00653
   53  C   1.08864   0.99822   1.00557   0.89113
   54  C   1.09518   0.89075   0.96378   0.98649
   55  C   1.09089   0.99902   0.89119   0.98652
   56  C   1.09451   0.89120   0.98836   0.96736
   57  C   1.09330   0.99200   0.97355   0.89026
   58  C   1.08690   0.89186   1.01070   1.00768
   59  C   1.09448   0.96737   0.89136   0.98830
   60  C   1.09218   0.99498   0.97931   0.89101
   61  C   1.08761   1.00367   0.89189   1.00837
   62  C   1.09063   0.89174   0.98721   0.99910
   63  C   1.08782   1.00805   0.89114   1.00261
   64  C   1.09479   0.98766   0.89063   0.96585
   65  C   1.09184   0.98101   0.99574   0.89154
   66  C   1.09249   0.97814   0.99442   0.89096
   67  C   1.09203   0.89121   0.98044   0.99559
   68  C   1.08842   1.00603   0.99939   0.89174
   69  C   1.09189   0.98093   0.89052   0.99603
   70  C   1.09113   0.89119   0.99798   0.98479
   71  C   1.09207   0.97984   0.89116   0.99522
   72  C   1.09509   0.98672   0.96438   0.89125
   73  C   1.06945   1.01733   1.03430   1.10689
   74  C   1.07049   1.03243   1.01833   1.10054
   75  C   1.06564   1.15730   1.02097   1.04533
   76  C   1.07347   1.02457   1.06467   1.01571
   77  C   1.07331   1.06695   1.01602   1.02501
   78  C   1.06623   1.04369   1.14951   1.02045
   79  C   1.07042   1.01736   1.03208   1.09791
   80  C   1.06618   1.04329   1.01983   1.14746
   81  C   1.06891   1.01937   1.11914   1.03666
   82  C   1.07429   1.02211   1.01458   1.05342
   83  C   1.06588   1.15014   1.04397   1.01975
   84  C   1.06911   1.01833   1.11391   1.03581
   85  C   1.07323   1.06465   1.02470   1.01510
   86  C   1.06947   1.03423   1.10628   1.01718
   87  C   1.07427   1.01549   1.02266   1.05668
   88  C   1.06682   1.02019   1.04212   1.14270
   89  C   1.06845   1.11864   1.01798   1.03699
   90  C   1.06885   1.11658   1.01849   1.03628
   91  C   1.06894   1.03589   1.11454   1.01814
   92  C   1.07252   1.01566   1.07280   1.02650
   93  C   1.07017   1.10373   1.03325   1.01834
   94  C   1.07008   1.03315   1.01761   1.10225
   95  C   1.06894   1.11524   1.03619   1.01822
   96  C   1.06556   1.02022   1.15515   1.04499
   97  C   1.06142   0.94923   1.01526   0.96957
   98  C   1.06156   1.01373   0.94895   0.96900
   99  C   1.05565   0.99389   0.95510   1.07384
  100  C   1.06491   0.97798   0.95506   0.94595
  101  C   1.06469   0.95602   0.94609   0.98057
  102  C   1.05656   1.06436   0.98992   0.95412
  103  C   1.06214   0.94827   1.00859   0.96694
  104  C   1.05708   1.06007   0.95347   0.98802
  105  C   1.05969   0.95076   0.97674   1.03279
  106  C   1.06598   0.96718   0.94474   0.95080
  107  C   1.05685   0.98891   1.06222   0.95379
  108  C   1.06043   0.95022   0.97357   1.02469
  109  C   1.06514   0.95423   0.97624   0.94560
  110  C   1.06151   1.01412   0.96913   0.94921
  111  C   1.06550   0.94533   0.97185   0.95268
  112  C   1.05728   0.95330   1.05708   0.98684
  113  C   1.06024   0.97448   0.95036   1.02729
  114  C   1.06030   0.97462   0.95005   1.02757
  115  C   1.06058   1.02458   0.97337   0.94985
  116  C   1.06445   0.94621   0.95714   0.98377
  117  C   1.06128   0.97008   1.01632   0.94926
  118  C   1.06161   1.01259   0.94911   0.96866
  119  C   1.06035   0.97388   1.02542   0.95035
  120  C   1.05624   0.95441   0.99169   1.06878
  121  C   1.06587   0.94209   0.93375   0.93629
  122  C   1.06431   0.93903   0.94462   0.94033
  123  C   1.06249   0.94046   0.94884   0.94834
  124  C   1.06643   0.92924   0.93792   0.94013
  125  C   1.06611   0.93846   0.94076   0.93063
  126  C   1.06306   0.94539   0.94000   0.94736
  127  C   1.06565   0.94146   0.93280   0.93794
  128  C   1.06394   0.94151   0.94533   0.93826
  129  C   1.06358   0.94634   0.94082   0.94267
  130  C   1.06720   0.92704   0.93942   0.93644
  131  C   1.06412   0.93757   0.94135   0.94526
  132  C   1.06497   0.94292   0.93849   0.93593
  133  C   1.06700   0.93617   0.92859   0.94012
  134  C   1.06595   0.93411   0.93591   0.94239
  135  C   1.06628   0.94045   0.92982   0.93853
  136  C   1.06324   0.94685   0.94425   0.94012
  137  C   1.06549   0.93658   0.94263   0.93518
  138  C   1.06485   0.93866   0.94307   0.93645
  139  C   1.06527   0.93485   0.93780   0.94232
  140  C   1.06674   0.94022   0.93650   0.92920
  141  C   1.06450   0.93992   0.93800   0.94404
  142  C   1.06552   0.93345   0.94180   0.93793
  143  C   1.06517   0.93797   0.93526   0.94258
  144  C   1.06357   0.94633   0.93840   0.94363
  145  C   1.06155   0.91732   0.89476   0.99600
  146  C   1.06365   0.89340   0.91549   0.98175
  147  C   1.06176   0.99162   0.91616   0.89422
  148  C   1.06367   0.89394   0.98432   0.91663
  149  C   1.06380   0.98318   0.91641   0.89379
  150  C   1.06195   0.89415   0.99074   0.91606
  151  C   1.06281   0.91637   0.89412   0.98798
  152  C   1.06125   0.89469   0.91682   0.99587
  153  C   1.06333   0.91528   0.98266   0.89339
  154  C   1.06314   0.89438   0.91767   0.98904
  155  C   1.06079   0.99895   0.89495   0.91724
  156  C   1.06261   0.91602   0.98801   0.89406
  157  C   1.06261   0.99170   0.89453   0.91770
  158  C   1.06132   0.89487   0.99762   0.91756
  159  C   1.06409   0.91660   0.89373   0.98213
  160  C   1.06232   0.91580   0.89397   0.98846
  161  C   1.06142   0.99613   0.91713   0.89475
  162  C   1.06259   0.98821   0.91606   0.89405
  163  C   1.06224   0.89431   0.99083   0.91645
  164  C   1.06265   0.91732   0.99078   0.89444
  165  C   1.06345   0.98285   0.89353   0.91554
  166  C   1.06269   0.89416   0.91628   0.98831
  167  C   1.06232   0.99001   0.89424   0.91629
  168  C   1.06092   0.91705   0.99777   0.89483
  169  C   1.04092   0.90439   0.94385   1.14633
  170  C   1.04187   0.93983   0.90469   1.13576
  171  C   1.04263   1.13941   0.90749   0.94416
  172  C   1.04182   0.93679   1.13354   0.90252
  173  C   1.04191   1.13279   0.90275   0.93668
  174  C   1.04228   0.94414   1.14057   0.90696
  175  C   1.04130   0.90416   0.94160   1.14113
  176  C   1.04191   0.94522   0.90665   1.14398
  177  C   1.04196   0.90564   1.13753   0.94153
  178  C   1.04172   0.93655   0.90178   1.13481
  179  C   1.04183   1.14551   0.94585   0.90670
  180  C   1.04147   0.90492   1.14151   0.94252
  181  C   1.04137   1.13873   0.93864   0.90231
  182  C   1.04083   0.94413   1.14735   0.90431
  183  C   1.04217   0.90226   0.93495   1.12978
  184  C   1.04214   0.90663   0.94370   1.14026
  185  C   1.04103   1.14692   0.90497   0.94470
  186  C   1.04146   1.14214   0.90516   0.94301
  187  C   1.04125   0.94348   1.14385   0.90494
  188  C   1.04128   0.90277   1.13974   0.93955
  189  C   1.04177   1.13717   0.94048   0.90474
  190  C   1.04134   0.94176   0.90430   1.14118
  191  C   1.04133   1.14294   0.94309   0.90489
  192  C   1.04219   0.90711   1.14344   0.94541
  193  C   1.03657   1.02918   1.12743   0.98127
  194  C   1.03749   1.11966   1.03034   0.97744
  195  C   1.03785   0.97766   1.03113   1.11905
  196  C   1.03647   1.12425   0.97907   1.02806
  197  C   1.03617   0.97979   1.02743   1.12598
  198  C   1.03815   1.11648   0.97668   1.03111
  199  C   1.03683   1.03002   1.12521   0.97972
  200  C   1.03761   1.12131   1.03086   0.97892
  201  C   1.03732   1.02993   0.97762   1.12026
  202  C   1.03601   1.12853   1.02750   0.98115
  203  C   1.03745   0.97914   1.12226   1.03081
  204  C   1.03662   1.02962   0.97998   1.12614
  205  C   1.03604   0.98084   1.12808   1.02759
  206  C   1.03641   1.12792   0.98122   1.02889
  207  C   1.03650   1.02851   1.12473   0.97922
  208  C   1.03809   1.03120   1.11736   0.97713
  209  C   1.03633   0.98158   1.02849   1.12837
  210  C   1.03672   0.97969   1.02967   1.12540
  211  C   1.03699   1.12396   0.97918   1.03018
  212  C   1.03587   1.02676   0.98146   1.12892
  213  C   1.03743   0.97712   1.11893   1.02977
  214  C   1.03686   1.12541   1.03023   0.97984
  215  C   1.03703   0.97913   1.12387   1.03032
  216  C   1.03721   1.03059   0.97971   1.12386
  217  C   1.06005   0.95755   0.99925   1.02813
  218  C   1.05976   1.00092   0.95736   1.03353
  219  C   1.05847   1.05937   0.96173   1.00729
  220  C   1.06074   0.99545   1.01260   0.95442
  221  C   1.06064   1.01460   0.95463   0.99598
  222  C   1.05870   1.00626   1.05505   0.96106
  223  C   1.06008   0.95691   0.99947   1.02780
  224  C   1.05897   1.00509   0.96070   1.05047
  225  C   1.05929   0.95880   1.04301   1.00333
  226  C   1.06114   0.99323   0.95334   1.00415
  227  C   1.05898   1.05019   1.00492   0.96085
  228  C   1.05964   0.95826   1.03630   1.00153
  229  C   1.06093   1.00855   0.99427   0.95423
  230  C   1.06009   0.99886   1.02697   0.95747
  231  C   1.06086   0.95380   0.99481   1.00993
  232  C   1.05885   0.96056   1.00567   1.05243
  233  C   1.05976   1.03416   0.95843   1.00083
  234  C   1.05960   1.03762   0.95836   1.00200
  235  C   1.05974   1.00124   1.03495   0.95815
  236  C   1.06073   0.95491   1.01316   0.99550
  237  C   1.05972   1.03435   1.00111   0.95757
  238  C   1.05996   0.99987   0.95736   1.02990
  239  C   1.05968   1.03579   1.00137   0.95831
  240  C   1.05877   0.96130   1.05397   1.00590
  241  C   1.05618   0.97088   0.93281   0.99570
  242  C   1.05629   0.93424   0.96951   0.99610
  243  C   1.06358   0.93519   0.97047   0.92321
  244  C   1.05095   0.94135   1.04055   0.97009
  245  C   1.05139   1.03706   0.96994   0.94093
  246  C   1.06247   0.92466   0.94423   0.97042
  247  C   1.05539   0.97025   0.93465   1.00274
  248  C   1.06188   0.92501   0.97096   0.94890
  249  C   1.05877   0.96957   0.97513   0.93058
  250  C   1.04908   0.94355   0.97064   1.05587
  251  C   1.06208   0.94717   0.92446   0.97124
  252  C   1.05752   0.97025   0.98492   0.93151
  253  C   1.05053   1.04337   0.94125   0.97072
  254  C   1.05600   0.93290   0.99705   0.97100
  255  C   1.05005   0.96992   0.94302   1.04871
  256  C   1.06163   0.97022   0.92596   0.95111
  257  C   1.05775   0.98253   0.97094   0.93050
  258  C   1.05795   0.98132   0.97024   0.93100
  259  C   1.05751   0.93135   0.98480   0.97047
  260  C   1.05171   0.97059   1.03340   0.93963
  261  C   1.05658   0.99338   0.93358   0.96967
  262  C   1.05591   0.93379   0.97027   0.99837
  263  C   1.05758   0.98429   0.93121   0.97043
  264  C   1.06290   0.97112   0.94067   0.92357
  265  C   1.06404   0.97069   0.95473   0.97670
  266  C   1.06443   0.95408   0.96963   0.97393
  267  C   1.06909   0.92854   0.95970   0.94657
  268  C   1.06117   0.95971   1.00526   0.97659
  269  C   1.06144   1.00260   0.97596   0.95920
  270  C   1.06833   0.94773   0.93593   0.96138
  271  C   1.06387   0.97110   0.95506   0.97934
  272  C   1.06781   0.94849   0.96265   0.94055
  273  C   1.06603   0.96622   0.95855   0.95142
  274  C   1.06002   0.96153   0.97910   1.01593
  275  C   1.06786   0.93981   0.94842   0.96255
  276  C   1.06514   0.96827   0.96696   0.95297
  277  C   1.06076   1.00852   0.96027   0.97754
  278  C   1.06387   0.95501   0.97814   0.97103
  279  C   1.06065   0.97762   0.96053   1.01028
  280  C   1.06783   0.96248   0.94853   0.94102
  281  C   1.06506   0.96694   0.96853   0.95301
  282  C   1.06548   0.96382   0.96766   0.95234
  283  C   1.06511   0.95296   0.96715   0.96848
  284  C   1.06151   0.97599   1.00150   0.95903
  285  C   1.06462   0.97216   0.95380   0.96927
  286  C   1.06409   0.95475   0.97051   0.97700
  287  C   1.06511   0.96708   0.95301   0.96837
  288  C   1.06846   0.96121   0.93409   0.94747
  289  H   0.81989
  290  H   0.82559
  291  H   0.82539
  292  H   0.82253
  293  H   0.82334
  294  H   0.82483
  295  H   0.82201
  296  H   0.82227
  297  H   0.82600
  298  H   0.82036
  299  H   0.82113
  300  H   0.82315
  301  H   0.81982
  302  H   0.81934
  303  H   0.82357
  304  H   0.82512
  305  H   0.82015
  306  H   0.82283
  307  H   0.82156
  308  H   0.82025
  309  H   0.82495
  310  H   0.82244
  311  H   0.82230
  312  H   0.82233
  313  H   0.82067
  314  H   0.82234
  315  H   0.82133
  316  H   0.82207
  317  H   0.82233
  318  H   0.82130
  319  H   0.82148
  320  H   0.82082
  321  H   0.82211
  322  H   0.82155
  323  H   0.82054
  324  H   0.82142
  325  H   0.82130
  326  H   0.82050
  327  H   0.82250
  328  H   0.82138
  329  H   0.82061
  330  H   0.82146
  331  H   0.82116
  332  H   0.82135
  333  H   0.82213
  334  H   0.82139
  335  H   0.82117
  336  H   0.82083
  337  H   0.84373
  338  H   0.84141
  339  H   0.83651
  340  H   0.84598
  341  H   0.84549
  342  H   0.83749
  343  H   0.84332
  344  H   0.83883
  345  H   0.83960
  346  H   0.84810
  347  H   0.83908
  348  H   0.84157
  349  H   0.84745
  350  H   0.84411
  351  H   0.84620
  352  H   0.83794
  353  H   0.84256
  354  H   0.84135
  355  H   0.84206
  356  H   0.84651
  357  H   0.84144
  358  H   0.84284
  359  H   0.84177
  360  H   0.83814

 **********************
 *                    *
 * JOB ENDED NORMALLY *
 *                    *
 **********************



 TOTAL JOB TIME:           542.05 SECONDS

 == MOPAC DONE ==
