 *******************************************************************************
 **                                                                           **
 **                              MOPAC v22.1.0                                **
 **                                                                           **
 *******************************************************************************
 **          Digital Object Identifier (DOI): 10.5281/zenodo.6511958          **
 **    Visit the DOI location for information on how to cite this program.    **
 *******************************************************************************

                              PM7 CALCULATION RESULTS

 *******************************************************************************
 *  CALCULATION DONE:                                Wed Jan 31 15:31:21 2024  *
 *  PM7        - The PM7 Hamiltonian to be used
 *  NOOPT      - DO NOT OPTIMIZE ANY COORDINATES
 *
 *
 *
 *                 CHARGE ON SYSTEM = 0
 *
 *
 *
 *  T=         - A TIME OF 172800.0 SECONDS REQUESTED
 *  DUMP=N     - RESTART FILE WRITTEN EVERY 7200.0 SECONDS REQUESTED
 *******************************************************************************
PM7 CHARGE=0 NOOPT


   ATOM   CHEMICAL          X               Y               Z
  NUMBER   SYMBOL      (ANGSTROMS)     (ANGSTROMS)     (ANGSTROMS)

     1       N         16.88029100     15.47701000     21.48728900   
     2       N          9.45951000     22.89779100      8.60021100   
     3       N          2.58271100      4.84529100     20.62799000   
     4       N         20.62799000      2.58271100      4.84529100   
     5       N         21.48728900     16.88029100     15.47701000   
     6       N         15.47701000     21.48728900     16.88029100   
     7       N          4.84529100     20.62799000      2.58271100   
     8       N         21.49451000     13.20720900     15.46978900   
     9       N          1.17220900     20.63521100      2.57549000   
    10       N          2.57549000      1.17220900     20.63521100   
    11       N         20.63521100      2.57549000      1.17220900   
    12       N         13.20720900     15.46978900     21.49451000   
    13       N         15.46978900     21.49451000     13.20720900   
    14       N          8.59299000      9.45228900     19.22470900   
    15       N          7.18970900      3.44201000     14.61771100   
    16       N         19.22470900      8.59299000      9.45228900   
    17       N         14.61771100      7.18970900      3.44201000   
    18       N          9.45228900     19.22470900      8.59299000   
    19       N          3.44201000     14.61771100      7.18970900   
    20       N         22.89779100      8.60021100      9.45951000   
    21       N          3.43478900     14.61049000     10.86279100   
    22       N         14.61049000     10.86279100      3.43478900   
    23       N          8.60021100      9.45951000     22.89779100   
    24       N         10.86279100      3.43478900     14.61049000   
    25       C         17.76606700     14.46125600     21.22974000   
    26       C          8.44375600     23.78356700      8.85776000   
    27       C          2.84026000      5.73106700     21.64374400   
    28       C         21.64374400      2.84026000      5.73106700   
    29       C         21.22974000     17.76606700     14.46125600   
    30       C         14.46125600     21.22974000     17.76606700   
    31       C          5.73106700     21.64374400      2.84026000   
    32       C         20.47875600     12.32143300     15.21224000   
    33       C          0.28643300     20.89276000      3.59124400   
    34       C          3.59124400      0.28643300     20.89276000   
    35       C         20.89276000      3.59124400      0.28643300   
    36       C         12.32143300     15.21224000     20.47875600   
    37       C         15.21224000     20.47875600     12.32143300   
    38       C          9.60874400      9.19474000     18.33893300   
    39       C          6.30393300      2.42625600     14.87526000   
    40       C         18.33893300      9.60874400      9.19474000   
    41       C         14.87526000      6.30393300      2.42625600   
    42       C          9.19474000     18.33893300      9.60874400   
    43       C          2.42625600     14.87526000      6.30393300   
    44       C         23.78356700      8.85776000      8.44375600   
    45       C          3.17724000     15.62624400     11.74856700   
    46       C         15.62624400     11.74856700      3.17724000   
    47       C          8.85776000      8.44375600     23.78356700   
    48       C         11.74856700      3.17724000     15.62624400   
    49       C         18.94068300     14.63696700     20.42098800   
    50       C          8.61946700      0.88818300      9.66651200   
    51       C          3.64901200      6.90568300     21.46803300   
    52       C         21.46803300      3.64901200      6.90568300   
    53       C         20.42098800     18.94068300     14.63696700   
    54       C         14.63696700     20.42098800     18.94068300   
    55       C          6.90568300     21.46803300      3.64901200   
    56       C         20.65446700     11.14681700     14.40348800   
    57       C         23.18181700     21.70151200      3.41553300   
    58       C          3.41553300     23.18181700     21.70151200   
    59       C         21.70151200      3.41553300     23.18181700   
    60       C         11.14681700     14.40348800     20.65446700   
    61       C         14.40348800     20.65446700     11.14681700   
    62       C          9.43303300      8.38598800     17.16431700   
    63       C          5.12931700      2.60196700     15.68401200   
    64       C         17.16431700      9.43303300      8.38598800   
    65       C         15.68401200      5.12931700      2.60196700   
    66       C          8.38598800     17.16431700      9.43303300   
    67       C          2.60196700     15.68401200      5.12931700   
    68       C          0.88818300      9.66651200      8.61946700   
    69       C          2.36848800     15.45053300     12.92318300   
    70       C         15.45053300     12.92318300      2.36848800   
    71       C          9.66651200      8.61946700      0.88818300   
    72       C         12.92318300      2.36848800     15.45053300   
    73       C         14.79342200     17.30392300     20.81332900   
    74       C         11.28642300     20.81092200      9.27417100   
    75       C          3.25667100      2.75842200     18.80107700   
    76       C         18.80107700      3.25667100      2.75842200   
    77       C         20.81332900     14.79342200     17.30392300   
    78       C         17.30392300     20.81332900     14.79342200   
    79       C          2.75842200     18.80107700      3.25667100   
    80       C         23.32142300     15.29407800     14.79582900   
    81       C          3.25907800     21.30917100      0.74857700   
    82       C          0.74857700      3.25907800     21.30917100   
    83       C         21.30917100      0.74857700      3.25907800   
    84       C         15.29407800     14.79582900     23.32142300   
    85       C         14.79582900     23.32142300     15.29407800   
    86       C          6.76607700      8.77832900     21.31157800   
    87       C          9.27657800      5.26892300     15.29167100   
    88       C         21.31157800      6.76607700      8.77832900   
    89       C         15.29167100      9.27657800      5.26892300   
    90       C          8.77832900     21.31157800      6.76607700   
    91       C          5.26892300     15.29167100      9.27657800   
    92       C         20.81092200      9.27417100     11.28642300   
    93       C          2.76082900     12.78357700      8.77592200   
    94       C         12.78357700      8.77592200      2.76082900   
    95       C          9.27417100     11.28642300     20.81092200   
    96       C          8.77592200      2.76082900     12.78357700   
    97       C         15.55884800     15.38313700     22.14199300   
    98       C          9.36563700     21.57634800      7.94550700   
    99       C          1.92800700      3.52384800     20.72186300   
   100       C         20.72186300      1.92800700      3.52384800   
   101       C         22.14199300     15.55884800     15.38313700   
   102       C         15.38313700     22.14199300     15.55884800   
   103       C          3.52384800     20.72186300      1.92800700   
   104       C         21.40063700     14.52865200     16.12449300   
   105       C          2.49365200     19.98050700      2.66936300   
   106       C          2.66936300      2.49365200     19.98050700   
   107       C         19.98050700      2.66936300      2.49365200   
   108       C         14.52865200     16.12449300     21.40063700   
   109       C         16.12449300     21.40063700     14.52865200   
   110       C          8.68686300     10.10699300     20.54615200   
   111       C          8.51115200      3.34813700     13.96300700   
   112       C         20.54615200      8.68686300     10.10699300   
   113       C         13.96300700      8.51115200      3.34813700   
   114       C         10.10699300     20.54615200      8.68686300   
   115       C          3.34813700     13.96300700      8.51115200   
   116       C         21.57634800      7.94550700      9.36563700   
   117       C          4.08949300     14.70436300      9.54134800   
   118       C         14.70436300      9.54134800      4.08949300   
   119       C          7.94550700      9.36563700     21.57634800   
   120       C          9.54134800      4.08949300     14.70436300   
   121       C         19.21748800     19.98050700     17.98510400   
   122       C         13.96300700      1.16498800     12.10239600   
   123       C          6.08489600      7.18248800     16.12449300   
   124       C         16.12449300      6.08489600      7.18248800   
   125       C         17.98510400     19.21748800     19.98050700   
   126       C         19.98050700     17.98510400     19.21748800   
   127       C          7.18248800     16.12449300      6.08489600   
   128       C          1.92800700     10.87001200     11.96760400   
   129       C         22.90501200      0.06739600     22.14199300   
   130       C         22.14199300     22.90501200      0.06739600   
   131       C          0.06739600     22.14199300     22.90501200   
   132       C         10.87001200     11.96760400      1.92800700   
   133       C         11.96760400      1.92800700     10.87001200   
   134       C          4.08949300      5.95010400     16.88751200   
   135       C          4.85251200      7.94550700     18.11989600   
   136       C         16.88751200      4.08949300      5.95010400   
   137       C         18.11989600      4.85251200      7.94550700   
   138       C          5.95010400     16.88751200      4.08949300   
   139       C          7.94550700     18.11989600      4.85251200   
   140       C          1.16498800     12.10239600     13.96300700   
   141       C         24.00260400     10.10699300     13.19998800   
   142       C         10.10699300     13.19998800     24.00260400   
   143       C         12.10239600     13.96300700      1.16498800   
   144       C         13.19998800     24.00260400     10.10699300   
   145       C         18.45687600     16.94528000     20.56300100   
   146       C         10.92778000      0.40437600      9.52449900   
   147       C          3.50699900      6.42187600     19.15972000   
   148       C         19.15972000      3.50699900      6.42187600   
   149       C         20.56300100     18.45687600     16.94528000   
   150       C         16.94528000     20.56300100     18.45687600   
   151       C          6.42187600     19.15972000      3.50699900   
   152       C         22.96278000     11.63062400     14.54550100   
   153       C         23.66562400     21.55949900      1.10722000   
   154       C          1.10722000     23.66562400     21.55949900   
   155       C         21.55949900      1.10722000     23.66562400   
   156       C         11.63062400     14.54550100     22.96278000   
   157       C         14.54550100     22.96278000     11.63062400   
   158       C          7.12472000      8.52800100     17.64812400   
   159       C          5.61312400      4.91028000     15.54199900   
   160       C         17.64812400      7.12472000      8.52800100   
   161       C         15.54199900      5.61312400      4.91028000   
   162       C          8.52800100     17.64812400      7.12472000   
   163       C          4.91028000     15.54199900      5.61312400   
   164       C          0.40437600      9.52449900     10.92778000   
   165       C          2.51050100     13.14222000     12.43937600   
   166       C         13.14222000     12.43937600      2.51050100   
   167       C          9.52449900     10.92778000      0.40437600   
   168       C         12.43937600      2.51050100     13.14222000   
   169       C         16.54812500     19.02011400     20.18991600   
   170       C         13.00261400     22.56562500      9.89758400   
   171       C          3.88008400      4.51312500     17.08488600   
   172       C         17.08488600      3.88008400      4.51312500   
   173       C         20.18991600     16.54812500     19.02011400   
   174       C         19.02011400     20.18991600     16.54812500   
   175       C          4.51312500     17.08488600      3.88008400   
   176       C          0.96761400     13.53937500     14.17241600   
   177       C          1.50437500     21.93258400     23.10238600   
   178       C         23.10238600      1.50437500     21.93258400   
   179       C         21.93258400     23.10238600      1.50437500   
   180       C         13.53937500     14.17241600      0.96761400   
   181       C         14.17241600      0.96761400     13.53937500   
   182       C          5.04988600      8.15491600     19.55687500   
   183       C          7.52187500      6.98511400     15.91508400   
   184       C         19.55687500      5.04988600      8.15491600   
   185       C         15.91508400      7.52187500      6.98511400   
   186       C          8.15491600     19.55687500      5.04988600   
   187       C          6.98511400     15.91508400      7.52187500   
   188       C         22.56562500      9.89758400     13.00261400   
   189       C          2.13741600     11.06738600     10.53062500   
   190       C         11.06738600     10.53062500      2.13741600   
   191       C          9.89758400     13.00261400     22.56562500   
   192       C         10.53062500      2.13741600     11.06738600   
   193       C         23.22514300     21.99035200     23.90873100   
   194       C         15.97285200      5.17264300      6.17876900   
   195       C          0.16126900     11.19014300     14.11464800   
   196       C         14.11464800      0.16126900     11.19014300   
   197       C         23.90873100     23.22514300     21.99035200   
   198       C         21.99035200     23.90873100     23.22514300   
   199       C         11.19014300     14.11464800      0.16126900   
   200       C          3.93785200      6.86235700     17.89123100   
   201       C         18.89735700     18.21376900     20.13214800   
   202       C         20.13214800     18.89735700     18.21376900   
   203       C         18.21376900     20.13214800     18.89735700   
   204       C          6.86235700     17.89123100      3.93785200   
   205       C         17.89123100      3.93785200      6.86235700   
   206       C          2.07964800     11.87373100     12.87985700   
   207       C          0.84485700      9.95535200     12.19626900   
   208       C         12.87985700      2.07964800     11.87373100   
   209       C         12.19626900      0.84485700      9.95535200   
   210       C         11.87373100     12.87985700      2.07964800   
   211       C          9.95535200     12.19626900      0.84485700   
   212       C          5.17264300      6.17876900     15.97285200   
   213       C          5.85623100      8.09714800     17.20764300   
   214       C          8.09714800     17.20764300      5.85623100   
   215       C          6.17876900     15.97285200      5.17264300   
   216       C         17.20764300      5.85623100      8.09714800   
   217       C         17.16672400     16.79123200     21.00829600   
   218       C         10.77373200     23.18422400      9.07920400   
   219       C          3.06170400      5.13172400     19.31376800   
   220       C         19.31376800      3.06170400      5.13172400   
   221       C         21.00829600     17.16672400     16.79123200   
   222       C         16.79123200     21.00829600     17.16672400   
   223       C          5.13172400     19.31376800      3.06170400   
   224       C         22.80873200     12.92077600     14.99079600   
   225       C          0.88577600     21.11420400      1.26126800   
   226       C          1.26126800      0.88577600     21.11420400   
   227       C         21.11420400      1.26126800      0.88577600   
   228       C         12.92077600     14.99079600     22.80873200   
   229       C         14.99079600     22.80873200     12.92077600   
   230       C          7.27876800      8.97329600     18.93827600   
   231       C          6.90327600      4.75623200     15.09670400   
   232       C         18.93827600      7.27876800      8.97329600   
   233       C         15.09670400      6.90327600      4.75623200   
   234       C          8.97329600     18.93827600      7.27876800   
   235       C          4.75623200     15.09670400      6.90327600   
   236       C         23.18422400      9.07920400     10.77373200   
   237       C          2.95579600     13.29626800     11.14922400   
   238       C         13.29626800     11.14922400      2.95579600   
   239       C          9.07920400     10.77373200     23.18422400   
   240       C         11.14922400      2.95579600     13.29626800   
   241       C         16.16300500     17.81420700     20.72908400   
   242       C         11.79670700     22.18050500      9.35841600   
   243       C          3.34091600      4.12800500     18.29079300   
   244       C         18.29079300      3.34091600      4.12800500   
   245       C         20.72908400     16.16300500     17.81420700   
   246       C         17.81420700     20.72908400     16.16300500   
   247       C          4.12800500     18.29079300      3.34091600   
   248       C         23.83170700     13.92449500     14.71158400   
   249       C          1.88949500     21.39341600      0.23829300   
   250       C          0.23829300      1.88949500     21.39341600   
   251       C         21.39341600      0.23829300      1.88949500   
   252       C         13.92449500     14.71158400     23.83170700   
   253       C         14.71158400     23.83170700     13.92449500   
   254       C          6.25579300      8.69408400     19.94199500   
   255       C          7.90699500      5.77920700     15.37591600   
   256       C         19.94199500      6.25579300      8.69408400   
   257       C         15.37591600      7.90699500      5.77920700   
   258       C          8.69408400     19.94199500      6.25579300   
   259       C          5.77920700     15.37591600      7.90699500   
   260       C         22.18050500      9.35841600     11.79670700   
   261       C          2.67658400     12.27329300     10.14550500   
   262       C         12.27329300     10.14550500      2.67658400   
   263       C          9.35841600     11.79670700     22.18050500   
   264       C         10.14550500      2.67658400     12.27329300   
   265       C         19.29932600     15.89101400     20.03346100   
   266       C          9.87351400      1.24682600     10.05403900   
   267       C          4.03653900      7.26432600     20.21398600   
   268       C         20.21398600      4.03653900      7.26432600   
   269       C         20.03346100     19.29932600     15.89101400   
   270       C         15.89101400     20.03346100     19.29932600   
   271       C          7.26432600     20.21398600      4.03653900   
   272       C         21.90851400     10.78817400     14.01596100   
   273       C         22.82317400     22.08903900      2.16148600   
   274       C          2.16148600     22.82317400     22.08903900   
   275       C         22.08903900      2.16148600     22.82317400   
   276       C         10.78817400     14.01596100     21.90851400   
   277       C         14.01596100     21.90851400     10.78817400   
   278       C          8.17898600      7.99846100     16.80567400   
   279       C          4.77067400      3.85601400     16.07153900   
   280       C         16.80567400      8.17898600      7.99846100   
   281       C         16.07153900      4.77067400      3.85601400   
   282       C          7.99846100     16.80567400      8.17898600   
   283       C          3.85601400     16.07153900      4.77067400   
   284       C          1.24682600     10.05403900      9.87351400   
   285       C          1.98096100     14.19648600     13.28182600   
   286       C         14.19648600     13.28182600      1.98096100   
   287       C         10.05403900      9.87351400      1.24682600   
   288       C         13.28182600      1.98096100     14.19648600   
   289       H         13.45031600     21.59801100     17.55184400   
   290       H         15.58051100     19.46781600     12.53565600   
   291       H          6.51815600      1.41531600     14.50698900   
   292       H         14.50698900      6.51815600      1.41531600   
   293       H         17.55184400     13.45031600     21.59801100   
   294       H         21.59801100     17.55184400     13.45031600   
   295       H          1.41531600     14.50698900      6.51815600   
   296       H          3.54551100     16.63718400     11.53434400   
   297       H          4.60218400      0.50065600     20.52448900   
   298       H         20.52448900      4.60218400      0.50065600   
   299       H          0.50065600     20.52448900      4.60218400   
   300       H         16.63718400     11.53434400      3.54551100   
   301       H         11.53434400      3.54551100     16.63718400   
   302       H          2.47198900      5.51684400     22.65468400   
   303       H         10.61968400      9.56301100     18.55315600   
   304       H         22.65468400      2.47198900      5.51684400   
   305       H         18.55315600     10.61968400      9.56301100   
   306       H          5.51684400     22.65468400      2.47198900   
   307       H          9.56301100     18.55315600     10.61968400   
   308       H         19.46781600     12.53565600     15.58051100   
   309       H         23.56934400      8.48948900      7.43281600   
   310       H          8.48948900      7.43281600     23.56934400   
   311       H         12.53565600     15.58051100     19.46781600   
   312       H          7.43281600     23.56934400      8.48948900   
   313       H         13.74878400     20.12733400     19.49910700   
   314       H         14.10983400     19.76628400     10.58839300   
   315       H          4.57089300      1.71378400     15.97766600   
   316       H         15.97766600      4.57089300      1.71378400   
   317       H         19.49910700     13.74878400     20.12733400   
   318       H         20.12733400     19.49910700     13.74878400   
   319       H          1.71378400     15.97766600      4.57089300   
   320       H          2.07483400     16.33871600     13.48160700   
   321       H          4.30371600     22.62339300     21.99516600   
   322       H         21.99516600      4.30371600     22.62339300   
   323       H         22.62339300     21.99516600      4.30371600   
   324       H         16.33871600     13.48160700      2.07483400   
   325       H         13.48160700      2.07483400     16.33871600   
   326       H          3.94266600      7.46410700     22.35621600   
   327       H         10.32121600      8.09233400     16.60589300   
   328       H         22.35621600      3.94266600      7.46410700   
   329       H         16.60589300     10.32121600      8.09233400   
   330       H          7.46410700     22.35621600      3.94266600   
   331       H          8.09233400     16.60589300     10.32121600   
   332       H         19.76628400     10.58839300     14.10983400   
   333       H          1.44660700      9.96016600      7.73128400   
   334       H          9.96016600      7.73128400      1.44660700   
   335       H         10.58839300     14.10983400     19.76628400   
   336       H          7.73128400      1.44660700      9.96016600   
   337       H         14.00392600     17.89845200     20.33674300   
   338       H         11.88095200     20.02142600      9.75075700   
   339       H          3.73325700      1.96892600     18.20654800   
   340       H         18.20654800      3.73325700      1.96892600   
   341       H         20.33674300     14.00392600     17.89845200   
   342       H         17.89845200     20.33674300     14.00392600   
   343       H          1.96892600     18.20654800      3.73325700   
   344       H         23.91595200     16.08357400     14.31924300   
   345       H          4.04857400     21.78575700      0.15404800   
   346       H          0.15404800      4.04857400     21.78575700   
   347       H         21.78575700      0.15404800      4.04857400   
   348       H         16.08357400     14.31924300     23.91595200   
   349       H         14.31924300     23.91595200     16.08357400   
   350       H          6.17154800      8.30174300     22.10107400   
   351       H         10.06607400      5.86345200     15.76825700   
   352       H         22.10107400      6.17154800      8.30174300   
   353       H         15.76825700     10.06607400      5.86345200   
   354       H          8.30174300     22.10107400      6.17154800   
   355       H          5.86345200     15.76825700     10.06607400   
   356       H         20.02142600      9.75075700     11.88095200   
   357       H          2.28424300     12.18904800      7.98642600   
   358       H         12.18904800      7.98642600      2.28424300   
   359       H          9.75075700     11.88095200     20.02142600   
   360       H          7.98642600      2.28424300     12.18904800   
   361      Tv         24.07000000      0.00000000      0.00000000   
   362      Tv          0.00000000     24.07000000      0.00000000   
   363      Tv          0.00000000      0.00000000     24.07000000   


                   THE SYSTEM IS A SOLID


                UNIT CELL TRANSLATION VECTORS

              X                Y              Z
    T1 =    24.0700000      0.0000000      0.0000000
    T2 =     0.0000000     24.0700000      0.0000000
    T3 =     0.0000000      0.0000000     24.0700000


          CARTESIAN COORDINATES 

    NO.       ATOM           X           Y           Z

     1         N         16.8803     15.4770     21.4873
     2         N          9.4595     22.8978      8.6002
     3         N          2.5827      4.8453     20.6280
     4         N         20.6280      2.5827      4.8453
     5         N         21.4873     16.8803     15.4770
     6         N         15.4770     21.4873     16.8803
     7         N          4.8453     20.6280      2.5827
     8         N         21.4945     13.2072     15.4698
     9         N          1.1722     20.6352      2.5755
    10         N          2.5755      1.1722     20.6352
    11         N         20.6352      2.5755      1.1722
    12         N         13.2072     15.4698     21.4945
    13         N         15.4698     21.4945     13.2072
    14         N          8.5930      9.4523     19.2247
    15         N          7.1897      3.4420     14.6177
    16         N         19.2247      8.5930      9.4523
    17         N         14.6177      7.1897      3.4420
    18         N          9.4523     19.2247      8.5930
    19         N          3.4420     14.6177      7.1897
    20         N         22.8978      8.6002      9.4595
    21         N          3.4348     14.6105     10.8628
    22         N         14.6105     10.8628      3.4348
    23         N          8.6002      9.4595     22.8978
    24         N         10.8628      3.4348     14.6105
    25         C         17.7661     14.4613     21.2297
    26         C          8.4438     23.7836      8.8578
    27         C          2.8403      5.7311     21.6437
    28         C         21.6437      2.8403      5.7311
    29         C         21.2297     17.7661     14.4613
    30         C         14.4613     21.2297     17.7661
    31         C          5.7311     21.6437      2.8403
    32         C         20.4788     12.3214     15.2122
    33         C          0.2864     20.8928      3.5912
    34         C          3.5912      0.2864     20.8928
    35         C         20.8928      3.5912      0.2864
    36         C         12.3214     15.2122     20.4788
    37         C         15.2122     20.4788     12.3214
    38         C          9.6087      9.1947     18.3389
    39         C          6.3039      2.4263     14.8753
    40         C         18.3389      9.6087      9.1947
    41         C         14.8753      6.3039      2.4263
    42         C          9.1947     18.3389      9.6087
    43         C          2.4263     14.8753      6.3039
    44         C         23.7836      8.8578      8.4438
    45         C          3.1772     15.6262     11.7486
    46         C         15.6262     11.7486      3.1772
    47         C          8.8578      8.4438     23.7836
    48         C         11.7486      3.1772     15.6262
    49         C         18.9407     14.6370     20.4210
    50         C          8.6195      0.8882      9.6665
    51         C          3.6490      6.9057     21.4680
    52         C         21.4680      3.6490      6.9057
    53         C         20.4210     18.9407     14.6370
    54         C         14.6370     20.4210     18.9407
    55         C          6.9057     21.4680      3.6490
    56         C         20.6545     11.1468     14.4035
    57         C         23.1818     21.7015      3.4155
    58         C          3.4155     23.1818     21.7015
    59         C         21.7015      3.4155     23.1818
    60         C         11.1468     14.4035     20.6545
    61         C         14.4035     20.6545     11.1468
    62         C          9.4330      8.3860     17.1643
    63         C          5.1293      2.6020     15.6840
    64         C         17.1643      9.4330      8.3860
    65         C         15.6840      5.1293      2.6020
    66         C          8.3860     17.1643      9.4330
    67         C          2.6020     15.6840      5.1293
    68         C          0.8882      9.6665      8.6195
    69         C          2.3685     15.4505     12.9232
    70         C         15.4505     12.9232      2.3685
    71         C          9.6665      8.6195      0.8882
    72         C         12.9232      2.3685     15.4505
    73         C         14.7934     17.3039     20.8133
    74         C         11.2864     20.8109      9.2742
    75         C          3.2567      2.7584     18.8011
    76         C         18.8011      3.2567      2.7584
    77         C         20.8133     14.7934     17.3039
    78         C         17.3039     20.8133     14.7934
    79         C          2.7584     18.8011      3.2567
    80         C         23.3214     15.2941     14.7958
    81         C          3.2591     21.3092      0.7486
    82         C          0.7486      3.2591     21.3092
    83         C         21.3092      0.7486      3.2591
    84         C         15.2941     14.7958     23.3214
    85         C         14.7958     23.3214     15.2941
    86         C          6.7661      8.7783     21.3116
    87         C          9.2766      5.2689     15.2917
    88         C         21.3116      6.7661      8.7783
    89         C         15.2917      9.2766      5.2689
    90         C          8.7783     21.3116      6.7661
    91         C          5.2689     15.2917      9.2766
    92         C         20.8109      9.2742     11.2864
    93         C          2.7608     12.7836      8.7759
    94         C         12.7836      8.7759      2.7608
    95         C          9.2742     11.2864     20.8109
    96         C          8.7759      2.7608     12.7836
    97         C         15.5588     15.3831     22.1420
    98         C          9.3656     21.5763      7.9455
    99         C          1.9280      3.5238     20.7219
   100         C         20.7219      1.9280      3.5238
   101         C         22.1420     15.5588     15.3831
   102         C         15.3831     22.1420     15.5588
   103         C          3.5238     20.7219      1.9280
   104         C         21.4006     14.5287     16.1245
   105         C          2.4937     19.9805      2.6694
   106         C          2.6694      2.4937     19.9805
   107         C         19.9805      2.6694      2.4937
   108         C         14.5287     16.1245     21.4006
   109         C         16.1245     21.4006     14.5287
   110         C          8.6869     10.1070     20.5462
   111         C          8.5112      3.3481     13.9630
   112         C         20.5462      8.6869     10.1070
   113         C         13.9630      8.5112      3.3481
   114         C         10.1070     20.5462      8.6869
   115         C          3.3481     13.9630      8.5112
   116         C         21.5763      7.9455      9.3656
   117         C          4.0895     14.7044      9.5413
   118         C         14.7044      9.5413      4.0895
   119         C          7.9455      9.3656     21.5763
   120         C          9.5413      4.0895     14.7044
   121         C         19.2175     19.9805     17.9851
   122         C         13.9630      1.1650     12.1024
   123         C          6.0849      7.1825     16.1245
   124         C         16.1245      6.0849      7.1825
   125         C         17.9851     19.2175     19.9805
   126         C         19.9805     17.9851     19.2175
   127         C          7.1825     16.1245      6.0849
   128         C          1.9280     10.8700     11.9676
   129         C         22.9050      0.0674     22.1420
   130         C         22.1420     22.9050      0.0674
   131         C          0.0674     22.1420     22.9050
   132         C         10.8700     11.9676      1.9280
   133         C         11.9676      1.9280     10.8700
   134         C          4.0895      5.9501     16.8875
   135         C          4.8525      7.9455     18.1199
   136         C         16.8875      4.0895      5.9501
   137         C         18.1199      4.8525      7.9455
   138         C          5.9501     16.8875      4.0895
   139         C          7.9455     18.1199      4.8525
   140         C          1.1650     12.1024     13.9630
   141         C         24.0026     10.1070     13.2000
   142         C         10.1070     13.2000     24.0026
   143         C         12.1024     13.9630      1.1650
   144         C         13.2000     24.0026     10.1070
   145         C         18.4569     16.9453     20.5630
   146         C         10.9278      0.4044      9.5245
   147         C          3.5070      6.4219     19.1597
   148         C         19.1597      3.5070      6.4219
   149         C         20.5630     18.4569     16.9453
   150         C         16.9453     20.5630     18.4569
   151         C          6.4219     19.1597      3.5070
   152         C         22.9628     11.6306     14.5455
   153         C         23.6656     21.5595      1.1072
   154         C          1.1072     23.6656     21.5595
   155         C         21.5595      1.1072     23.6656
   156         C         11.6306     14.5455     22.9628
   157         C         14.5455     22.9628     11.6306
   158         C          7.1247      8.5280     17.6481
   159         C          5.6131      4.9103     15.5420
   160         C         17.6481      7.1247      8.5280
   161         C         15.5420      5.6131      4.9103
   162         C          8.5280     17.6481      7.1247
   163         C          4.9103     15.5420      5.6131
   164         C          0.4044      9.5245     10.9278
   165         C          2.5105     13.1422     12.4394
   166         C         13.1422     12.4394      2.5105
   167         C          9.5245     10.9278      0.4044
   168         C         12.4394      2.5105     13.1422
   169         C         16.5481     19.0201     20.1899
   170         C         13.0026     22.5656      9.8976
   171         C          3.8801      4.5131     17.0849
   172         C         17.0849      3.8801      4.5131
   173         C         20.1899     16.5481     19.0201
   174         C         19.0201     20.1899     16.5481
   175         C          4.5131     17.0849      3.8801
   176         C          0.9676     13.5394     14.1724
   177         C          1.5044     21.9326     23.1024
   178         C         23.1024      1.5044     21.9326
   179         C         21.9326     23.1024      1.5044
   180         C         13.5394     14.1724      0.9676
   181         C         14.1724      0.9676     13.5394
   182         C          5.0499      8.1549     19.5569
   183         C          7.5219      6.9851     15.9151
   184         C         19.5569      5.0499      8.1549
   185         C         15.9151      7.5219      6.9851
   186         C          8.1549     19.5569      5.0499
   187         C          6.9851     15.9151      7.5219
   188         C         22.5656      9.8976     13.0026
   189         C          2.1374     11.0674     10.5306
   190         C         11.0674     10.5306      2.1374
   191         C          9.8976     13.0026     22.5656
   192         C         10.5306      2.1374     11.0674
   193         C         23.2251     21.9904     23.9087
   194         C         15.9729      5.1726      6.1788
   195         C          0.1613     11.1901     14.1146
   196         C         14.1146      0.1613     11.1901
   197         C         23.9087     23.2251     21.9904
   198         C         21.9904     23.9087     23.2251
   199         C         11.1901     14.1146      0.1613
   200         C          3.9379      6.8624     17.8912
   201         C         18.8974     18.2138     20.1321
   202         C         20.1321     18.8974     18.2138
   203         C         18.2138     20.1321     18.8974
   204         C          6.8624     17.8912      3.9379
   205         C         17.8912      3.9379      6.8624
   206         C          2.0796     11.8737     12.8799
   207         C          0.8449      9.9554     12.1963
   208         C         12.8799      2.0796     11.8737
   209         C         12.1963      0.8449      9.9554
   210         C         11.8737     12.8799      2.0796
   211         C          9.9554     12.1963      0.8449
   212         C          5.1726      6.1788     15.9729
   213         C          5.8562      8.0971     17.2076
   214         C          8.0971     17.2076      5.8562
   215         C          6.1788     15.9729      5.1726
   216         C         17.2076      5.8562      8.0971
   217         C         17.1667     16.7912     21.0083
   218         C         10.7737     23.1842      9.0792
   219         C          3.0617      5.1317     19.3138
   220         C         19.3138      3.0617      5.1317
   221         C         21.0083     17.1667     16.7912
   222         C         16.7912     21.0083     17.1667
   223         C          5.1317     19.3138      3.0617
   224         C         22.8087     12.9208     14.9908
   225         C          0.8858     21.1142      1.2613
   226         C          1.2613      0.8858     21.1142
   227         C         21.1142      1.2613      0.8858
   228         C         12.9208     14.9908     22.8087
   229         C         14.9908     22.8087     12.9208
   230         C          7.2788      8.9733     18.9383
   231         C          6.9033      4.7562     15.0967
   232         C         18.9383      7.2788      8.9733
   233         C         15.0967      6.9033      4.7562
   234         C          8.9733     18.9383      7.2788
   235         C          4.7562     15.0967      6.9033
   236         C         23.1842      9.0792     10.7737
   237         C          2.9558     13.2963     11.1492
   238         C         13.2963     11.1492      2.9558
   239         C          9.0792     10.7737     23.1842
   240         C         11.1492      2.9558     13.2963
   241         C         16.1630     17.8142     20.7291
   242         C         11.7967     22.1805      9.3584
   243         C          3.3409      4.1280     18.2908
   244         C         18.2908      3.3409      4.1280
   245         C         20.7291     16.1630     17.8142
   246         C         17.8142     20.7291     16.1630
   247         C          4.1280     18.2908      3.3409
   248         C         23.8317     13.9245     14.7116
   249         C          1.8895     21.3934      0.2383
   250         C          0.2383      1.8895     21.3934
   251         C         21.3934      0.2383      1.8895
   252         C         13.9245     14.7116     23.8317
   253         C         14.7116     23.8317     13.9245
   254         C          6.2558      8.6941     19.9420
   255         C          7.9070      5.7792     15.3759
   256         C         19.9420      6.2558      8.6941
   257         C         15.3759      7.9070      5.7792
   258         C          8.6941     19.9420      6.2558
   259         C          5.7792     15.3759      7.9070
   260         C         22.1805      9.3584     11.7967
   261         C          2.6766     12.2733     10.1455
   262         C         12.2733     10.1455      2.6766
   263         C          9.3584     11.7967     22.1805
   264         C         10.1455      2.6766     12.2733
   265         C         19.2993     15.8910     20.0335
   266         C          9.8735      1.2468     10.0540
   267         C          4.0365      7.2643     20.2140
   268         C         20.2140      4.0365      7.2643
   269         C         20.0335     19.2993     15.8910
   270         C         15.8910     20.0335     19.2993
   271         C          7.2643     20.2140      4.0365
   272         C         21.9085     10.7882     14.0160
   273         C         22.8232     22.0890      2.1615
   274         C          2.1615     22.8232     22.0890
   275         C         22.0890      2.1615     22.8232
   276         C         10.7882     14.0160     21.9085
   277         C         14.0160     21.9085     10.7882
   278         C          8.1790      7.9985     16.8057
   279         C          4.7707      3.8560     16.0715
   280         C         16.8057      8.1790      7.9985
   281         C         16.0715      4.7707      3.8560
   282         C          7.9985     16.8057      8.1790
   283         C          3.8560     16.0715      4.7707
   284         C          1.2468     10.0540      9.8735
   285         C          1.9810     14.1965     13.2818
   286         C         14.1965     13.2818      1.9810
   287         C         10.0540      9.8735      1.2468
   288         C         13.2818      1.9810     14.1965
   289         H         13.4503     21.5980     17.5518
   290         H         15.5805     19.4678     12.5357
   291         H          6.5182      1.4153     14.5070
   292         H         14.5070      6.5182      1.4153
   293         H         17.5518     13.4503     21.5980
   294         H         21.5980     17.5518     13.4503
   295         H          1.4153     14.5070      6.5182
   296         H          3.5455     16.6372     11.5343
   297         H          4.6022      0.5007     20.5245
   298         H         20.5245      4.6022      0.5007
   299         H          0.5007     20.5245      4.6022
   300         H         16.6372     11.5343      3.5455
   301         H         11.5343      3.5455     16.6372
   302         H          2.4720      5.5168     22.6547
   303         H         10.6197      9.5630     18.5532
   304         H         22.6547      2.4720      5.5168
   305         H         18.5532     10.6197      9.5630
   306         H          5.5168     22.6547      2.4720
   307         H          9.5630     18.5532     10.6197
   308         H         19.4678     12.5357     15.5805
   309         H         23.5693      8.4895      7.4328
   310         H          8.4895      7.4328     23.5693
   311         H         12.5357     15.5805     19.4678
   312         H          7.4328     23.5693      8.4895
   313         H         13.7488     20.1273     19.4991
   314         H         14.1098     19.7663     10.5884
   315         H          4.5709      1.7138     15.9777
   316         H         15.9777      4.5709      1.7138
   317         H         19.4991     13.7488     20.1273
   318         H         20.1273     19.4991     13.7488
   319         H          1.7138     15.9777      4.5709
   320         H          2.0748     16.3387     13.4816
   321         H          4.3037     22.6234     21.9952
   322         H         21.9952      4.3037     22.6234
   323         H         22.6234     21.9952      4.3037
   324         H         16.3387     13.4816      2.0748
   325         H         13.4816      2.0748     16.3387
   326         H          3.9427      7.4641     22.3562
   327         H         10.3212      8.0923     16.6059
   328         H         22.3562      3.9427      7.4641
   329         H         16.6059     10.3212      8.0923
   330         H          7.4641     22.3562      3.9427
   331         H          8.0923     16.6059     10.3212
   332         H         19.7663     10.5884     14.1098
   333         H          1.4466      9.9602      7.7313
   334         H          9.9602      7.7313      1.4466
   335         H         10.5884     14.1098     19.7663
   336         H          7.7313      1.4466      9.9602
   337         H         14.0039     17.8985     20.3367
   338         H         11.8810     20.0214      9.7508
   339         H          3.7333      1.9689     18.2065
   340         H         18.2065      3.7333      1.9689
   341         H         20.3367     14.0039     17.8985
   342         H         17.8985     20.3367     14.0039
   343         H          1.9689     18.2065      3.7333
   344         H         23.9160     16.0836     14.3192
   345         H          4.0486     21.7858      0.1540
   346         H          0.1540      4.0486     21.7858
   347         H         21.7858      0.1540      4.0486
   348         H         16.0836     14.3192     23.9160
   349         H         14.3192     23.9160     16.0836
   350         H          6.1715      8.3017     22.1011
   351         H         10.0661      5.8635     15.7683
   352         H         22.1011      6.1715      8.3017
   353         H         15.7683     10.0661      5.8635
   354         H          8.3017     22.1011      6.1715
   355         H          5.8635     15.7683     10.0661
   356         H         20.0214      9.7508     11.8810
   357         H          2.2842     12.1890      7.9864
   358         H         12.1890      7.9864      2.2842
   359         H          9.7508     11.8810     20.0214
   360         H          7.9864      2.2842     12.1890

 General Reference for PM7:
 "Optimization of Parameters for Semiempirical Methods VI: More Modifications to the 
 NDDO Approximations and Re-optimization of Parameters", J. J. P. Stewart, J. Mol. Mod., 1:32, 19 (2013)
 https://link.springer.com/article/10.1007/s00894-012-1667-x

           Empirical Formula: C264 H72 N24  =   360 atoms



      RHF CALCULATION, NO. OF DOUBLY OCCUPIED LEVELS = 624


 -------------------------------------------------------------------------------
 PM7 CHARGE=0 NOOPT




     NO PARAMETERS MARKED FOR OPTIMIZATION, SO 1SCF WAS USED  
     SCF FIELD WAS ACHIEVED                                   


                              PM7 CALCULATION
                                                       MOPAC v22.1.0 Linux
                                                       Wed Jan 31 15:40:16 2024




          FINAL HEAT OF FORMATION =       3162.27519 KCAL/MOL =   13230.95941 KJ/MOL
          H.o.F. per unit cell    =        131.76147 KCAL, for 24 unit cells, unit cell = C11 H3 N1



          IONIZATION POTENTIAL    =          6.178046 EV
          HOMO LUMO ENERGIES (EV) =         -6.178 -2.546
          NO. OF FILLED LEVELS    =        624
          MOLECULAR WEIGHT        =       3579.6336

                   THE SYSTEM IS A SOLID


                UNIT CELL TRANSLATION VECTORS

              X                Y              Z
    T1 =    24.0700000      0.0000000      0.0000000
    T2 =     0.0000000     24.0700000      0.0000000
    T3 =     0.0000000      0.0000000     24.0700000

          VOLUME OF UNIT CELL     =      13945.313 CUBIC ANGSTROMS

          DENSITY                 =          0.426 GRAMS/CC
                              A   =         24.070 ANGSTROMS
                              B   =         24.070 ANGSTROMS
                              C   =         24.070 ANGSTROMS
                            ALPHA =         90.000 DEGREES
                            BETA  =         90.000 DEGREES
                            GAMMA =         90.000 DEGREES



          SCF CALCULATIONS        =          1

          WALL-CLOCK TIME         =          8 MINUTES AND 55.531 SECONDS
          COMPUTATION TIME        =          8 MINUTES AND 55.526 SECONDS




   ATOM   CHEMICAL          X               Y               Z
  NUMBER   SYMBOL      (ANGSTROMS)     (ANGSTROMS)     (ANGSTROMS)

     1       N         16.88029100     15.47701000     21.48728900   
     2       N          9.45951000     22.89779100      8.60021100   
     3       N          2.58271100      4.84529100     20.62799000   
     4       N         20.62799000      2.58271100      4.84529100   
     5       N         21.48728900     16.88029100     15.47701000   
     6       N         15.47701000     21.48728900     16.88029100   
     7       N          4.84529100     20.62799000      2.58271100   
     8       N         21.49451000     13.20720900     15.46978900   
     9       N          1.17220900     20.63521100      2.57549000   
    10       N          2.57549000      1.17220900     20.63521100   
    11       N         20.63521100      2.57549000      1.17220900   
    12       N         13.20720900     15.46978900     21.49451000   
    13       N         15.46978900     21.49451000     13.20720900   
    14       N          8.59299000      9.45228900     19.22470900   
    15       N          7.18970900      3.44201000     14.61771100   
    16       N         19.22470900      8.59299000      9.45228900   
    17       N         14.61771100      7.18970900      3.44201000   
    18       N          9.45228900     19.22470900      8.59299000   
    19       N          3.44201000     14.61771100      7.18970900   
    20       N         22.89779100      8.60021100      9.45951000   
    21       N          3.43478900     14.61049000     10.86279100   
    22       N         14.61049000     10.86279100      3.43478900   
    23       N          8.60021100      9.45951000     22.89779100   
    24       N         10.86279100      3.43478900     14.61049000   
    25       C         17.76606700     14.46125600     21.22974000   
    26       C          8.44375600     23.78356700      8.85776000   
    27       C          2.84026000      5.73106700     21.64374400   
    28       C         21.64374400      2.84026000      5.73106700   
    29       C         21.22974000     17.76606700     14.46125600   
    30       C         14.46125600     21.22974000     17.76606700   
    31       C          5.73106700     21.64374400      2.84026000   
    32       C         20.47875600     12.32143300     15.21224000   
    33       C          0.28643300     20.89276000      3.59124400   
    34       C          3.59124400      0.28643300     20.89276000   
    35       C         20.89276000      3.59124400      0.28643300   
    36       C         12.32143300     15.21224000     20.47875600   
    37       C         15.21224000     20.47875600     12.32143300   
    38       C          9.60874400      9.19474000     18.33893300   
    39       C          6.30393300      2.42625600     14.87526000   
    40       C         18.33893300      9.60874400      9.19474000   
    41       C         14.87526000      6.30393300      2.42625600   
    42       C          9.19474000     18.33893300      9.60874400   
    43       C          2.42625600     14.87526000      6.30393300   
    44       C         23.78356700      8.85776000      8.44375600   
    45       C          3.17724000     15.62624400     11.74856700   
    46       C         15.62624400     11.74856700      3.17724000   
    47       C          8.85776000      8.44375600     23.78356700   
    48       C         11.74856700      3.17724000     15.62624400   
    49       C         18.94068300     14.63696700     20.42098800   
    50       C          8.61946700      0.88818300      9.66651200   
    51       C          3.64901200      6.90568300     21.46803300   
    52       C         21.46803300      3.64901200      6.90568300   
    53       C         20.42098800     18.94068300     14.63696700   
    54       C         14.63696700     20.42098800     18.94068300   
    55       C          6.90568300     21.46803300      3.64901200   
    56       C         20.65446700     11.14681700     14.40348800   
    57       C         23.18181700     21.70151200      3.41553300   
    58       C          3.41553300     23.18181700     21.70151200   
    59       C         21.70151200      3.41553300     23.18181700   
    60       C         11.14681700     14.40348800     20.65446700   
    61       C         14.40348800     20.65446700     11.14681700   
    62       C          9.43303300      8.38598800     17.16431700   
    63       C          5.12931700      2.60196700     15.68401200   
    64       C         17.16431700      9.43303300      8.38598800   
    65       C         15.68401200      5.12931700      2.60196700   
    66       C          8.38598800     17.16431700      9.43303300   
    67       C          2.60196700     15.68401200      5.12931700   
    68       C          0.88818300      9.66651200      8.61946700   
    69       C          2.36848800     15.45053300     12.92318300   
    70       C         15.45053300     12.92318300      2.36848800   
    71       C          9.66651200      8.61946700      0.88818300   
    72       C         12.92318300      2.36848800     15.45053300   
    73       C         14.79342200     17.30392300     20.81332900   
    74       C         11.28642300     20.81092200      9.27417100   
    75       C          3.25667100      2.75842200     18.80107700   
    76       C         18.80107700      3.25667100      2.75842200   
    77       C         20.81332900     14.79342200     17.30392300   
    78       C         17.30392300     20.81332900     14.79342200   
    79       C          2.75842200     18.80107700      3.25667100   
    80       C         23.32142300     15.29407800     14.79582900   
    81       C          3.25907800     21.30917100      0.74857700   
    82       C          0.74857700      3.25907800     21.30917100   
    83       C         21.30917100      0.74857700      3.25907800   
    84       C         15.29407800     14.79582900     23.32142300   
    85       C         14.79582900     23.32142300     15.29407800   
    86       C          6.76607700      8.77832900     21.31157800   
    87       C          9.27657800      5.26892300     15.29167100   
    88       C         21.31157800      6.76607700      8.77832900   
    89       C         15.29167100      9.27657800      5.26892300   
    90       C          8.77832900     21.31157800      6.76607700   
    91       C          5.26892300     15.29167100      9.27657800   
    92       C         20.81092200      9.27417100     11.28642300   
    93       C          2.76082900     12.78357700      8.77592200   
    94       C         12.78357700      8.77592200      2.76082900   
    95       C          9.27417100     11.28642300     20.81092200   
    96       C          8.77592200      2.76082900     12.78357700   
    97       C         15.55884800     15.38313700     22.14199300   
    98       C          9.36563700     21.57634800      7.94550700   
    99       C          1.92800700      3.52384800     20.72186300   
   100       C         20.72186300      1.92800700      3.52384800   
   101       C         22.14199300     15.55884800     15.38313700   
   102       C         15.38313700     22.14199300     15.55884800   
   103       C          3.52384800     20.72186300      1.92800700   
   104       C         21.40063700     14.52865200     16.12449300   
   105       C          2.49365200     19.98050700      2.66936300   
   106       C          2.66936300      2.49365200     19.98050700   
   107       C         19.98050700      2.66936300      2.49365200   
   108       C         14.52865200     16.12449300     21.40063700   
   109       C         16.12449300     21.40063700     14.52865200   
   110       C          8.68686300     10.10699300     20.54615200   
   111       C          8.51115200      3.34813700     13.96300700   
   112       C         20.54615200      8.68686300     10.10699300   
   113       C         13.96300700      8.51115200      3.34813700   
   114       C         10.10699300     20.54615200      8.68686300   
   115       C          3.34813700     13.96300700      8.51115200   
   116       C         21.57634800      7.94550700      9.36563700   
   117       C          4.08949300     14.70436300      9.54134800   
   118       C         14.70436300      9.54134800      4.08949300   
   119       C          7.94550700      9.36563700     21.57634800   
   120       C          9.54134800      4.08949300     14.70436300   
   121       C         19.21748800     19.98050700     17.98510400   
   122       C         13.96300700      1.16498800     12.10239600   
   123       C          6.08489600      7.18248800     16.12449300   
   124       C         16.12449300      6.08489600      7.18248800   
   125       C         17.98510400     19.21748800     19.98050700   
   126       C         19.98050700     17.98510400     19.21748800   
   127       C          7.18248800     16.12449300      6.08489600   
   128       C          1.92800700     10.87001200     11.96760400   
   129       C         22.90501200      0.06739600     22.14199300   
   130       C         22.14199300     22.90501200      0.06739600   
   131       C          0.06739600     22.14199300     22.90501200   
   132       C         10.87001200     11.96760400      1.92800700   
   133       C         11.96760400      1.92800700     10.87001200   
   134       C          4.08949300      5.95010400     16.88751200   
   135       C          4.85251200      7.94550700     18.11989600   
   136       C         16.88751200      4.08949300      5.95010400   
   137       C         18.11989600      4.85251200      7.94550700   
   138       C          5.95010400     16.88751200      4.08949300   
   139       C          7.94550700     18.11989600      4.85251200   
   140       C          1.16498800     12.10239600     13.96300700   
   141       C         24.00260400     10.10699300     13.19998800   
   142       C         10.10699300     13.19998800     24.00260400   
   143       C         12.10239600     13.96300700      1.16498800   
   144       C         13.19998800     24.00260400     10.10699300   
   145       C         18.45687600     16.94528000     20.56300100   
   146       C         10.92778000      0.40437600      9.52449900   
   147       C          3.50699900      6.42187600     19.15972000   
   148       C         19.15972000      3.50699900      6.42187600   
   149       C         20.56300100     18.45687600     16.94528000   
   150       C         16.94528000     20.56300100     18.45687600   
   151       C          6.42187600     19.15972000      3.50699900   
   152       C         22.96278000     11.63062400     14.54550100   
   153       C         23.66562400     21.55949900      1.10722000   
   154       C          1.10722000     23.66562400     21.55949900   
   155       C         21.55949900      1.10722000     23.66562400   
   156       C         11.63062400     14.54550100     22.96278000   
   157       C         14.54550100     22.96278000     11.63062400   
   158       C          7.12472000      8.52800100     17.64812400   
   159       C          5.61312400      4.91028000     15.54199900   
   160       C         17.64812400      7.12472000      8.52800100   
   161       C         15.54199900      5.61312400      4.91028000   
   162       C          8.52800100     17.64812400      7.12472000   
   163       C          4.91028000     15.54199900      5.61312400   
   164       C          0.40437600      9.52449900     10.92778000   
   165       C          2.51050100     13.14222000     12.43937600   
   166       C         13.14222000     12.43937600      2.51050100   
   167       C          9.52449900     10.92778000      0.40437600   
   168       C         12.43937600      2.51050100     13.14222000   
   169       C         16.54812500     19.02011400     20.18991600   
   170       C         13.00261400     22.56562500      9.89758400   
   171       C          3.88008400      4.51312500     17.08488600   
   172       C         17.08488600      3.88008400      4.51312500   
   173       C         20.18991600     16.54812500     19.02011400   
   174       C         19.02011400     20.18991600     16.54812500   
   175       C          4.51312500     17.08488600      3.88008400   
   176       C          0.96761400     13.53937500     14.17241600   
   177       C          1.50437500     21.93258400     23.10238600   
   178       C         23.10238600      1.50437500     21.93258400   
   179       C         21.93258400     23.10238600      1.50437500   
   180       C         13.53937500     14.17241600      0.96761400   
   181       C         14.17241600      0.96761400     13.53937500   
   182       C          5.04988600      8.15491600     19.55687500   
   183       C          7.52187500      6.98511400     15.91508400   
   184       C         19.55687500      5.04988600      8.15491600   
   185       C         15.91508400      7.52187500      6.98511400   
   186       C          8.15491600     19.55687500      5.04988600   
   187       C          6.98511400     15.91508400      7.52187500   
   188       C         22.56562500      9.89758400     13.00261400   
   189       C          2.13741600     11.06738600     10.53062500   
   190       C         11.06738600     10.53062500      2.13741600   
   191       C          9.89758400     13.00261400     22.56562500   
   192       C         10.53062500      2.13741600     11.06738600   
   193       C         23.22514300     21.99035200     23.90873100   
   194       C         15.97285200      5.17264300      6.17876900   
   195       C          0.16126900     11.19014300     14.11464800   
   196       C         14.11464800      0.16126900     11.19014300   
   197       C         23.90873100     23.22514300     21.99035200   
   198       C         21.99035200     23.90873100     23.22514300   
   199       C         11.19014300     14.11464800      0.16126900   
   200       C          3.93785200      6.86235700     17.89123100   
   201       C         18.89735700     18.21376900     20.13214800   
   202       C         20.13214800     18.89735700     18.21376900   
   203       C         18.21376900     20.13214800     18.89735700   
   204       C          6.86235700     17.89123100      3.93785200   
   205       C         17.89123100      3.93785200      6.86235700   
   206       C          2.07964800     11.87373100     12.87985700   
   207       C          0.84485700      9.95535200     12.19626900   
   208       C         12.87985700      2.07964800     11.87373100   
   209       C         12.19626900      0.84485700      9.95535200   
   210       C         11.87373100     12.87985700      2.07964800   
   211       C          9.95535200     12.19626900      0.84485700   
   212       C          5.17264300      6.17876900     15.97285200   
   213       C          5.85623100      8.09714800     17.20764300   
   214       C          8.09714800     17.20764300      5.85623100   
   215       C          6.17876900     15.97285200      5.17264300   
   216       C         17.20764300      5.85623100      8.09714800   
   217       C         17.16672400     16.79123200     21.00829600   
   218       C         10.77373200     23.18422400      9.07920400   
   219       C          3.06170400      5.13172400     19.31376800   
   220       C         19.31376800      3.06170400      5.13172400   
   221       C         21.00829600     17.16672400     16.79123200   
   222       C         16.79123200     21.00829600     17.16672400   
   223       C          5.13172400     19.31376800      3.06170400   
   224       C         22.80873200     12.92077600     14.99079600   
   225       C          0.88577600     21.11420400      1.26126800   
   226       C          1.26126800      0.88577600     21.11420400   
   227       C         21.11420400      1.26126800      0.88577600   
   228       C         12.92077600     14.99079600     22.80873200   
   229       C         14.99079600     22.80873200     12.92077600   
   230       C          7.27876800      8.97329600     18.93827600   
   231       C          6.90327600      4.75623200     15.09670400   
   232       C         18.93827600      7.27876800      8.97329600   
   233       C         15.09670400      6.90327600      4.75623200   
   234       C          8.97329600     18.93827600      7.27876800   
   235       C          4.75623200     15.09670400      6.90327600   
   236       C         23.18422400      9.07920400     10.77373200   
   237       C          2.95579600     13.29626800     11.14922400   
   238       C         13.29626800     11.14922400      2.95579600   
   239       C          9.07920400     10.77373200     23.18422400   
   240       C         11.14922400      2.95579600     13.29626800   
   241       C         16.16300500     17.81420700     20.72908400   
   242       C         11.79670700     22.18050500      9.35841600   
   243       C          3.34091600      4.12800500     18.29079300   
   244       C         18.29079300      3.34091600      4.12800500   
   245       C         20.72908400     16.16300500     17.81420700   
   246       C         17.81420700     20.72908400     16.16300500   
   247       C          4.12800500     18.29079300      3.34091600   
   248       C         23.83170700     13.92449500     14.71158400   
   249       C          1.88949500     21.39341600      0.23829300   
   250       C          0.23829300      1.88949500     21.39341600   
   251       C         21.39341600      0.23829300      1.88949500   
   252       C         13.92449500     14.71158400     23.83170700   
   253       C         14.71158400     23.83170700     13.92449500   
   254       C          6.25579300      8.69408400     19.94199500   
   255       C          7.90699500      5.77920700     15.37591600   
   256       C         19.94199500      6.25579300      8.69408400   
   257       C         15.37591600      7.90699500      5.77920700   
   258       C          8.69408400     19.94199500      6.25579300   
   259       C          5.77920700     15.37591600      7.90699500   
   260       C         22.18050500      9.35841600     11.79670700   
   261       C          2.67658400     12.27329300     10.14550500   
   262       C         12.27329300     10.14550500      2.67658400   
   263       C          9.35841600     11.79670700     22.18050500   
   264       C         10.14550500      2.67658400     12.27329300   
   265       C         19.29932600     15.89101400     20.03346100   
   266       C          9.87351400      1.24682600     10.05403900   
   267       C          4.03653900      7.26432600     20.21398600   
   268       C         20.21398600      4.03653900      7.26432600   
   269       C         20.03346100     19.29932600     15.89101400   
   270       C         15.89101400     20.03346100     19.29932600   
   271       C          7.26432600     20.21398600      4.03653900   
   272       C         21.90851400     10.78817400     14.01596100   
   273       C         22.82317400     22.08903900      2.16148600   
   274       C          2.16148600     22.82317400     22.08903900   
   275       C         22.08903900      2.16148600     22.82317400   
   276       C         10.78817400     14.01596100     21.90851400   
   277       C         14.01596100     21.90851400     10.78817400   
   278       C          8.17898600      7.99846100     16.80567400   
   279       C          4.77067400      3.85601400     16.07153900   
   280       C         16.80567400      8.17898600      7.99846100   
   281       C         16.07153900      4.77067400      3.85601400   
   282       C          7.99846100     16.80567400      8.17898600   
   283       C          3.85601400     16.07153900      4.77067400   
   284       C          1.24682600     10.05403900      9.87351400   
   285       C          1.98096100     14.19648600     13.28182600   
   286       C         14.19648600     13.28182600      1.98096100   
   287       C         10.05403900      9.87351400      1.24682600   
   288       C         13.28182600      1.98096100     14.19648600   
   289       H         13.45031600     21.59801100     17.55184400   
   290       H         15.58051100     19.46781600     12.53565600   
   291       H          6.51815600      1.41531600     14.50698900   
   292       H         14.50698900      6.51815600      1.41531600   
   293       H         17.55184400     13.45031600     21.59801100   
   294       H         21.59801100     17.55184400     13.45031600   
   295       H          1.41531600     14.50698900      6.51815600   
   296       H          3.54551100     16.63718400     11.53434400   
   297       H          4.60218400      0.50065600     20.52448900   
   298       H         20.52448900      4.60218400      0.50065600   
   299       H          0.50065600     20.52448900      4.60218400   
   300       H         16.63718400     11.53434400      3.54551100   
   301       H         11.53434400      3.54551100     16.63718400   
   302       H          2.47198900      5.51684400     22.65468400   
   303       H         10.61968400      9.56301100     18.55315600   
   304       H         22.65468400      2.47198900      5.51684400   
   305       H         18.55315600     10.61968400      9.56301100   
   306       H          5.51684400     22.65468400      2.47198900   
   307       H          9.56301100     18.55315600     10.61968400   
   308       H         19.46781600     12.53565600     15.58051100   
   309       H         23.56934400      8.48948900      7.43281600   
   310       H          8.48948900      7.43281600     23.56934400   
   311       H         12.53565600     15.58051100     19.46781600   
   312       H          7.43281600     23.56934400      8.48948900   
   313       H         13.74878400     20.12733400     19.49910700   
   314       H         14.10983400     19.76628400     10.58839300   
   315       H          4.57089300      1.71378400     15.97766600   
   316       H         15.97766600      4.57089300      1.71378400   
   317       H         19.49910700     13.74878400     20.12733400   
   318       H         20.12733400     19.49910700     13.74878400   
   319       H          1.71378400     15.97766600      4.57089300   
   320       H          2.07483400     16.33871600     13.48160700   
   321       H          4.30371600     22.62339300     21.99516600   
   322       H         21.99516600      4.30371600     22.62339300   
   323       H         22.62339300     21.99516600      4.30371600   
   324       H         16.33871600     13.48160700      2.07483400   
   325       H         13.48160700      2.07483400     16.33871600   
   326       H          3.94266600      7.46410700     22.35621600   
   327       H         10.32121600      8.09233400     16.60589300   
   328       H         22.35621600      3.94266600      7.46410700   
   329       H         16.60589300     10.32121600      8.09233400   
   330       H          7.46410700     22.35621600      3.94266600   
   331       H          8.09233400     16.60589300     10.32121600   
   332       H         19.76628400     10.58839300     14.10983400   
   333       H          1.44660700      9.96016600      7.73128400   
   334       H          9.96016600      7.73128400      1.44660700   
   335       H         10.58839300     14.10983400     19.76628400   
   336       H          7.73128400      1.44660700      9.96016600   
   337       H         14.00392600     17.89845200     20.33674300   
   338       H         11.88095200     20.02142600      9.75075700   
   339       H          3.73325700      1.96892600     18.20654800   
   340       H         18.20654800      3.73325700      1.96892600   
   341       H         20.33674300     14.00392600     17.89845200   
   342       H         17.89845200     20.33674300     14.00392600   
   343       H          1.96892600     18.20654800      3.73325700   
   344       H         23.91595200     16.08357400     14.31924300   
   345       H          4.04857400     21.78575700      0.15404800   
   346       H          0.15404800      4.04857400     21.78575700   
   347       H         21.78575700      0.15404800      4.04857400   
   348       H         16.08357400     14.31924300     23.91595200   
   349       H         14.31924300     23.91595200     16.08357400   
   350       H          6.17154800      8.30174300     22.10107400   
   351       H         10.06607400      5.86345200     15.76825700   
   352       H         22.10107400      6.17154800      8.30174300   
   353       H         15.76825700     10.06607400      5.86345200   
   354       H          8.30174300     22.10107400      6.17154800   
   355       H          5.86345200     15.76825700     10.06607400   
   356       H         20.02142600      9.75075700     11.88095200   
   357       H          2.28424300     12.18904800      7.98642600   
   358       H         12.18904800      7.98642600      2.28424300   
   359       H          9.75075700     11.88095200     20.02142600   
   360       H          7.98642600      2.28424300     12.18904800   
   361      Tv         24.07000000      0.00000000      0.00000000   
   362      Tv          0.00000000     24.07000000      0.00000000   
   363      Tv          0.00000000      0.00000000     24.07000000   

                             CARTESIAN COORDINATES

   1    N       16.880291000    15.477010000    21.487289000
   2    N        9.459510000    22.897791000     8.600211000
   3    N        2.582711000     4.845291000    20.627990000
   4    N       20.627990000     2.582711000     4.845291000
   5    N       21.487289000    16.880291000    15.477010000
   6    N       15.477010000    21.487289000    16.880291000
   7    N        4.845291000    20.627990000     2.582711000
   8    N       21.494510000    13.207209000    15.469789000
   9    N        1.172209000    20.635211000     2.575490000
  10    N        2.575490000     1.172209000    20.635211000
  11    N       20.635211000     2.575490000     1.172209000
  12    N       13.207209000    15.469789000    21.494510000
  13    N       15.469789000    21.494510000    13.207209000
  14    N        8.592990000     9.452289000    19.224709000
  15    N        7.189709000     3.442010000    14.617711000
  16    N       19.224709000     8.592990000     9.452289000
  17    N       14.617711000     7.189709000     3.442010000
  18    N        9.452289000    19.224709000     8.592990000
  19    N        3.442010000    14.617711000     7.189709000
  20    N       22.897791000     8.600211000     9.459510000
  21    N        3.434789000    14.610490000    10.862791000
  22    N       14.610490000    10.862791000     3.434789000
  23    N        8.600211000     9.459510000    22.897791000
  24    N       10.862791000     3.434789000    14.610490000
  25    C       17.766067000    14.461256000    21.229740000
  26    C        8.443756000    23.783567000     8.857760000
  27    C        2.840260000     5.731067000    21.643744000
  28    C       21.643744000     2.840260000     5.731067000
  29    C       21.229740000    17.766067000    14.461256000
  30    C       14.461256000    21.229740000    17.766067000
  31    C        5.731067000    21.643744000     2.840260000
  32    C       20.478756000    12.321433000    15.212240000
  33    C        0.286433000    20.892760000     3.591244000
  34    C        3.591244000     0.286433000    20.892760000
  35    C       20.892760000     3.591244000     0.286433000
  36    C       12.321433000    15.212240000    20.478756000
  37    C       15.212240000    20.478756000    12.321433000
  38    C        9.608744000     9.194740000    18.338933000
  39    C        6.303933000     2.426256000    14.875260000
  40    C       18.338933000     9.608744000     9.194740000
  41    C       14.875260000     6.303933000     2.426256000
  42    C        9.194740000    18.338933000     9.608744000
  43    C        2.426256000    14.875260000     6.303933000
  44    C       23.783567000     8.857760000     8.443756000
  45    C        3.177240000    15.626244000    11.748567000
  46    C       15.626244000    11.748567000     3.177240000
  47    C        8.857760000     8.443756000    23.783567000
  48    C       11.748567000     3.177240000    15.626244000
  49    C       18.940683000    14.636967000    20.420988000
  50    C        8.619467000     0.888183000     9.666512000
  51    C        3.649012000     6.905683000    21.468033000
  52    C       21.468033000     3.649012000     6.905683000
  53    C       20.420988000    18.940683000    14.636967000
  54    C       14.636967000    20.420988000    18.940683000
  55    C        6.905683000    21.468033000     3.649012000
  56    C       20.654467000    11.146817000    14.403488000
  57    C       23.181817000    21.701512000     3.415533000
  58    C        3.415533000    23.181817000    21.701512000
  59    C       21.701512000     3.415533000    23.181817000
  60    C       11.146817000    14.403488000    20.654467000
  61    C       14.403488000    20.654467000    11.146817000
  62    C        9.433033000     8.385988000    17.164317000
  63    C        5.129317000     2.601967000    15.684012000
  64    C       17.164317000     9.433033000     8.385988000
  65    C       15.684012000     5.129317000     2.601967000
  66    C        8.385988000    17.164317000     9.433033000
  67    C        2.601967000    15.684012000     5.129317000
  68    C        0.888183000     9.666512000     8.619467000
  69    C        2.368488000    15.450533000    12.923183000
  70    C       15.450533000    12.923183000     2.368488000
  71    C        9.666512000     8.619467000     0.888183000
  72    C       12.923183000     2.368488000    15.450533000
  73    C       14.793422000    17.303923000    20.813329000
[...]
  293          H           0.180639        0.8194     0.81936
  294          H           0.175840        0.8242     0.82416
  295          H           0.172589        0.8274     0.82741
  296          H           0.175237        0.8248     0.82476
  297          H           0.178041        0.8220     0.82196
  298          H           0.174509        0.8255     0.82549
  299          H           0.176600        0.8234     0.82340
  300          H           0.181479        0.8185     0.81852
  301          H           0.180634        0.8194     0.81937
  302          H           0.173660        0.8263     0.82634
  303          H           0.180809        0.8192     0.81919
  304          H           0.180803        0.8192     0.81920
  305          H           0.177848        0.8222     0.82215
  306          H           0.183319        0.8167     0.81668
  307          H           0.177869        0.8221     0.82213
  308          H           0.172400        0.8276     0.82760
  309          H           0.181622        0.8184     0.81838
  310          H           0.174727        0.8253     0.82527
  311          H           0.178276        0.8217     0.82172
  312          H           0.173347        0.8267     0.82665
  313          H           0.169909        0.8301     0.83009
  314          H           0.179183        0.8208     0.82082
  315          H           0.176123        0.8239     0.82388
  316          H           0.169914        0.8301     0.83009
  317          H           0.171744        0.8283     0.82826
  318          H           0.178634        0.8214     0.82137
  319          H           0.168751        0.8312     0.83125
  320          H           0.178629        0.8214     0.82137
  321          H           0.182843        0.8172     0.81716
  322          H           0.167863        0.8321     0.83214
  323          H           0.173772        0.8262     0.82623
  324          H           0.184983        0.8150     0.81502
  325          H           0.171744        0.8283     0.82826
  326          H           0.167601        0.8324     0.83240
  327          H           0.185111        0.8149     0.81489
  328          H           0.184084        0.8159     0.81592
  329          H           0.175094        0.8249     0.82491
  330          H           0.175780        0.8242     0.82422
  331          H           0.179401        0.8206     0.82060
  332          H           0.169946        0.8301     0.83005
  333          H           0.172872        0.8271     0.82713
  334          H           0.169215        0.8308     0.83078
  335          H           0.175685        0.8243     0.82431
  336          H           0.169592        0.8304     0.83041
  337          H           0.178745        0.8213     0.82125
  338          H           0.166676        0.8333     0.83332
  339          H           0.166094        0.8339     0.83391
  340          H           0.184635        0.8154     0.81536
  341          H           0.181497        0.8185     0.81850
  342          H           0.165737        0.8343     0.83426
  343          H           0.181528        0.8185     0.81847
  344          H           0.165644        0.8344     0.83436
  345          H           0.172843        0.8272     0.82716
  346          H           0.184259        0.8157     0.81574
  347          H           0.167516        0.8325     0.83248
  348          H           0.177297        0.8227     0.82270
  349          H           0.181783        0.8182     0.81822
  350          H           0.185085        0.8149     0.81491
  351          H           0.177176        0.8228     0.82282
  352          H           0.176140        0.8239     0.82386
  353          H           0.166884        0.8331     0.83312
  354          H           0.182144        0.8179     0.81786
  355          H           0.165884        0.8341     0.83412
  356          H           0.179674        0.8203     0.82033
  357          H           0.182120        0.8179     0.81788
  358          H           0.184758        0.8152     0.81524
  359          H           0.166147        0.8339     0.83385
  360          H           0.178671        0.8213     0.82133


          ATOMIC ORBITAL ELECTRON POPULATIONS

     Atom    s        px        py        pz   
    1  N   1.51851   1.15124   1.10624   1.30336
    2  N   1.52617   1.11970   1.16182   1.38726
    3  N   1.52493   1.40117   1.16096   1.11687
    4  N   1.51991   1.10969   1.30553   1.15896
    5  N   1.52008   1.33754   1.16482   1.10984
    6  N   1.52694   1.12091   1.39342   1.16293
    7  N   1.51736   1.15091   1.10345   1.28035
    8  N   1.52717   1.12119   1.16337   1.39938
    9  N   1.52418   1.16392   1.35219   1.11723
   10  N   1.52054   1.11177   1.16088   1.32087
   11  N   1.52413   1.38544   1.11605   1.15874
   12  N   1.52256   1.16426   1.33970   1.11380
   13  N   1.51976   1.32576   1.10883   1.16324
   14  N   1.52000   1.11007   1.30393   1.15840
   15  N   1.52259   1.16423   1.11396   1.33998
   16  N   1.52294   1.16403   1.11475   1.34242
   17  N   1.52476   1.38589   1.15957   1.11696
   18  N   1.51972   1.32579   1.16372   1.10843
   19  N   1.52623   1.11936   1.40154   1.16243
   20  N   1.51814   1.15111   1.29643   1.10522
   21  N   1.52043   1.34400   1.11078   1.16578
   22  N   1.51969   1.10921   1.15819   1.30128
   23  N   1.52497   1.39303   1.11714   1.16034
   24  N   1.51849   1.15139   1.30344   1.10619
   25  C   1.07626   0.98838   0.96169   1.09911
   26  C   1.08067   0.95489   0.96401   1.06293
   27  C   1.07704   1.08320   0.96793   0.95709
   28  C   1.09746   0.95035   0.97423   0.95004
   29  C   1.09739   0.96741   0.94475   0.94676
   30  C   1.08233   0.95402   1.05205   0.95952
   31  C   1.08145   0.98288   0.96077   1.07101
   32  C   1.08254   0.95376   0.95796   1.04999
   33  C   1.08808   0.95762   1.02216   0.95112
   34  C   1.09858   0.94806   0.94570   0.96448
   35  C   1.07573   1.09349   0.95833   0.97363
   36  C   1.09046   0.95577   1.00944   0.95046
   37  C   1.09710   0.97096   0.94801   0.94708
   38  C   1.09841   0.95034   0.96937   0.94864
   39  C   1.09057   0.95569   0.95040   1.00919
   40  C   1.08973   0.95653   0.95064   1.01332
   41  C   1.07771   1.08243   0.96975   0.95754
   42  C   1.09654   0.97502   0.94819   0.94836
   43  C   1.07972   0.95508   1.06660   0.96299
   44  C   1.07748   0.98723   1.09274   0.96170
   45  C   1.09728   0.96735   0.94619   0.94417
   46  C   1.09764   0.95087   0.95045   0.97437
   47  C   1.07795   1.07972   0.95720   0.96777
   48  C   1.07617   0.98863   1.09945   0.96156
   49  C   1.08361   0.98617   1.05917   0.98186
   50  C   1.07879   1.06512   1.00791   1.01574
   51  C   1.07916   0.99901   1.00027   1.05784
   52  C   1.07558   1.07898   1.06439   1.03195
   53  C   1.07253   1.07946   1.04033   1.07891
   54  C   1.07786   1.06631   1.02348   1.01264
   55  C   1.08262   0.99467   1.06312   0.99783
   56  C   1.07750   1.06592   1.01370   1.02467
   57  C   1.07726   1.01923   1.04118   1.07280
   58  C   1.07386   1.08041   1.03814   1.07526
   59  C   1.08053   0.99092   1.05766   0.99485
   60  C   1.07669   1.02238   1.04774   1.07412
   61  C   1.07335   1.07579   1.07878   1.03805
   62  C   1.07539   1.07958   1.06675   1.03340
   63  C   1.07680   1.02205   1.07430   1.04723
   64  C   1.07687   1.02140   1.07376   1.04581
   65  C   1.08014   0.99723   0.99853   1.05977
   66  C   1.07396   1.07116   1.03532   1.07821
   67  C   1.07838   1.06267   1.01299   1.00750
   68  C   1.08349   0.98783   0.98502   1.05996
   69  C   1.07242   1.07903   1.07874   1.04019
   70  C   1.07588   1.07888   1.03111   1.06287
   71  C   1.07957   0.99973   1.05930   1.00037
   72  C   1.08358   0.98627   0.98203   1.05916
   73  C   1.06864   1.04973   1.01082   1.13462
   74  C   1.07960   0.98650   1.04092   1.01440
   75  C   1.08300   0.99356   1.04129   0.98179
   76  C   1.06374   1.01876   1.19241   1.04818
   77  C   1.06464   1.18600   1.04744   1.01916
   78  C   1.08121   0.98290   0.99998   1.04011
   79  C   1.06604   1.04994   1.01619   1.16395
   80  C   1.08266   0.98048   1.03973   0.99044
   81  C   1.06449   1.04415   1.13633   1.01355
   82  C   1.06601   1.01442   1.04791   1.17681
   83  C   1.08053   1.01299   0.98596   1.04291
   84  C   1.05965   1.04564   1.18821   1.02451
   85  C   1.06383   1.19110   1.02038   1.04750
   86  C   1.06588   1.01445   1.17760   1.04813
   87  C   1.05975   1.04573   1.02443   1.18763
   88  C   1.06065   1.04543   1.02197   1.17651
   89  C   1.08064   1.00879   1.04201   0.98506
   90  C   1.06203   1.20383   1.04744   1.02416
   91  C   1.08253   0.98199   0.99499   1.04018
   92  C   1.06778   1.04981   1.14398   1.01269
   93  C   1.06407   1.19009   1.01988   1.04708
   94  C   1.06458   1.01725   1.04838   1.18672
   95  C   1.08193   0.99864   0.98278   1.04146
   96  C   1.06868   1.04945   1.13397   1.01070
   97  C   1.05068   0.79341   1.10802   0.98882
   98  C   1.06525   0.99376   0.79214   0.94442
   99  C   1.06380   0.94594   0.79478   1.00132
  100  C   1.04002   1.22478   1.02056   0.80399
  101  C   1.03644   1.02525   0.80725   1.23920
  102  C   1.06527   0.99395   0.94406   0.79236
  103  C   1.04290   0.79517   1.17169   1.01148
  104  C   1.06570   0.99233   0.79285   0.94347
  105  C   1.05874   0.79360   0.96413   1.05650
  106  C   1.04011   1.22514   0.80671   1.01924
  107  C   1.06342   0.94689   1.00323   0.79403
  108  C   1.05418   0.79522   0.97943   1.10185
  109  C   1.03581   1.02760   1.24279   0.80578
  110  C   1.03858   1.23463   1.02386   0.80512
  111  C   1.05419   0.79545   1.10151   0.97941
  112  C   1.05556   0.79475   1.08871   0.97491
  113  C   1.06347   0.94675   0.79372   1.00328
  114  C   1.03704   1.02482   0.80465   1.23432
  115  C   1.06566   0.99195   0.94339   0.79358
  116  C   1.04860   0.79353   0.99499   1.12501
  117  C   1.03865   1.01999   1.22745   0.80752
  118  C   1.03857   1.23278   0.80420   1.02379
  119  C   1.06333   0.94663   1.00365   0.79427
  120  C   1.05062   0.79349   0.98895   1.10834
  121  C   1.07605   0.92054   0.89554   0.95299
  122  C   1.07246   0.93702   0.95005   0.94483
  123  C   1.07579   0.94577   0.92769   0.90081
  124  C   1.07195   0.90922   0.94886   0.92640
  125  C   1.06871   0.94445   0.94487   0.93547
  126  C   1.07178   0.94140   0.94481   0.95210
  127  C   1.07454   0.92318   0.90185   0.95356
  128  C   1.07180   0.94179   0.95234   0.94513
  129  C   1.07025   0.95497   0.94377   0.94841
  130  C   1.07071   0.91596   0.93031   0.94817
  131  C   1.07650   0.94720   0.89429   0.92254
  132  C   1.07028   0.95306   0.94359   0.94500
  133  C   1.06898   0.94474   0.93413   0.94357
  134  C   1.07155   0.91240   0.95043   0.92772
  135  C   1.07011   0.95553   0.94882   0.94419
  136  C   1.07048   0.95145   0.94272   0.94337
  137  C   1.07595   0.94579   0.92496   0.89783
  138  C   1.06910   0.94489   0.94814   0.93991
  139  C   1.07307   0.93194   0.94472   0.94793
  140  C   1.07605   0.92104   0.95392   0.89669
  141  C   1.06860   0.94477   0.93820   0.94693
  142  C   1.07201   0.90950   0.92633   0.94982
  143  C   1.07577   0.94577   0.90029   0.92687
  144  C   1.07552   0.92135   0.95201   0.89671
  145  C   1.06936   0.95756   1.00642   0.95446
  146  C   1.06596   1.00888   0.96528   0.99195
  147  C   1.06934   0.95271   0.95967   1.00307
  148  C   1.06543   1.01666   1.01895   0.97459
  149  C   1.06393   1.03488   0.97631   1.01746
  150  C   1.06510   1.00909   1.00049   0.96823
  151  C   1.06784   0.96353   1.00791   0.97317
  152  C   1.06496   1.00819   0.96933   1.00091
  153  C   1.06514   0.96660   1.01273   1.01478
  154  C   1.06427   1.01762   0.97704   1.03058
  155  C   1.06992   0.94799   1.00448   0.95704
  156  C   1.06582   0.96641   1.01033   1.01512
  157  C   1.06415   1.03303   1.01757   0.97608
  158  C   1.06473   1.01703   1.02564   0.97715
  159  C   1.06590   0.96638   1.01549   1.01041
  160  C   1.06568   0.96613   1.01492   1.01003
  161  C   1.06922   0.95697   0.95928   1.00547
  162  C   1.06477   1.02834   0.97425   1.01767
  163  C   1.06659   1.00599   0.98268   0.96535
  164  C   1.06922   0.95890   0.95762   1.00676
  165  C   1.06394   1.03454   1.01734   0.97598
  166  C   1.06536   1.01667   0.97526   1.01957
  167  C   1.06909   0.95719   1.00462   0.96004
  168  C   1.06897   0.95813   0.95716   1.00617
  169  C   1.05012   0.97351   1.00120   1.10947
  170  C   1.03696   1.01938   0.96376   1.18359
  171  C   1.03984   1.15765   0.96476   1.00954
  172  C   1.06434   0.97817   1.03131   0.97367
  173  C   1.06503   1.02827   0.97412   0.97624
  174  C   1.03688   1.01833   1.18224   0.96207
  175  C   1.05554   0.97261   0.99327   1.07998
  176  C   1.03735   1.01647   0.96092   1.17787
  177  C   1.03923   0.96997   1.18908   1.02612
  178  C   1.06724   0.97096   0.97355   1.01078
  179  C   1.04033   1.15591   1.00978   0.96759
  180  C   1.04318   0.97240   1.17188   1.02281
  181  C   1.06414   1.03475   0.97852   0.97372
  182  C   1.06713   0.97207   1.01213   0.97285
  183  C   1.04307   0.97273   1.02323   1.17303
  184  C   1.04206   0.97188   1.02380   1.17681
  185  C   1.03940   1.16243   0.96624   1.01173
  186  C   1.06146   1.05639   0.97470   0.98629
  187  C   1.03781   1.01537   1.17452   0.96206
  188  C   1.05149   0.97338   1.10266   0.99974
  189  C   1.06461   1.03190   0.97771   0.97421
  190  C   1.06523   0.97639   0.97351   1.02544
  191  C   1.03935   1.16159   1.01108   0.96521
  192  C   1.05036   0.97284   1.10713   1.00014
  193  C   1.04374   1.02620   1.09482   0.97347
  194  C   1.03882   1.12093   1.02023   0.98378
  195  C   1.04204   0.97845   1.01710   1.09887
  196  C   1.04837   1.06161   0.96958   1.01984
  197  C   1.04676   0.97215   1.01674   1.06837
  198  C   1.03883   1.12041   0.98404   1.01958
  199  C   1.04466   1.02716   1.09028   0.97279
  200  C   1.03891   1.11868   1.01812   0.98455
  201  C   1.04185   1.01658   0.98060   1.10070
  202  C   1.04852   1.05973   1.01935   0.96936
  203  C   1.04184   0.97808   1.10083   1.01854
  204  C   1.04305   1.01454   0.97955   1.09170
  205  C   1.04568   0.97377   1.07636   1.01788
  206  C   1.04857   1.05984   0.96938   1.01978
  207  C   1.04233   1.01575   1.09745   0.98021
  208  C   1.04179   1.01695   1.10173   0.98121
  209  C   1.04149   0.97847   1.02037   1.10454
  210  C   1.04589   0.97369   1.01657   1.07417
  211  C   1.03880   1.12016   0.98410   1.01929
  212  C   1.04496   1.02687   0.97200   1.08799
  213  C   1.04640   0.97302   1.06931   1.01470
  214  C   1.04853   1.06183   1.02135   0.96884
  215  C   1.04101   0.98053   1.10595   1.01796
  216  C   1.04413   1.02729   0.97342   1.09357
  217  C   1.07014   0.98159   0.84924   1.03354
  218  C   1.07595   0.82973   0.97437   0.96157
  219  C   1.07392   0.97001   0.97282   0.83295
  220  C   1.06766   0.84808   1.02866   0.97809
  221  C   1.06828   1.00845   0.97529   0.84518
  222  C   1.07638   0.82750   0.95427   0.97297
  223  C   1.06904   0.98085   0.85239   1.04030
  224  C   1.07599   0.82670   0.97201   0.95318
  225  C   1.07531   0.97836   0.98175   0.83800
  226  C   1.06737   0.84494   0.97685   1.02140
  227  C   1.07410   0.97844   0.83504   0.97533
  228  C   1.07328   0.97928   0.99888   0.84377
  229  C   1.06854   1.01169   0.84635   0.97595
  230  C   1.06751   0.84685   1.02637   0.97729
  231  C   1.07333   0.97934   0.84357   0.99854
  232  C   1.07377   0.97920   0.84239   0.99530
  233  C   1.07478   0.97185   0.97462   0.83371
  234  C   1.06900   1.01230   0.97665   0.84746
  235  C   1.07495   0.82926   0.96056   0.97245
  236  C   1.06982   0.98142   1.03638   0.85047
  237  C   1.06840   1.00722   0.84476   0.97536
  238  C   1.06753   0.84824   0.97794   1.02941
  239  C   1.07471   0.96806   0.83290   0.97352
  240  C   1.07012   0.98140   1.03249   0.84919
  241  C   1.05923   0.93155   0.95508   0.97196
  242  C   1.04191   0.97421   0.92954   1.10044
  243  C   1.04134   1.11170   0.92967   0.97875
  244  C   1.06238   0.95125   0.95530   0.94120
  245  C   1.06151   0.96549   0.94440   0.95161
  246  C   1.03978   0.97755   1.11788   0.92930
  247  C   1.06142   0.93456   0.95179   0.95594
  248  C   1.03845   0.97971   0.92971   1.12902
  249  C   1.05475   0.93304   0.99165   0.95190
  250  C   1.06092   0.95533   0.94214   0.97298
  251  C   1.04469   1.08686   0.97508   0.92848
  252  C   1.06044   0.93670   0.94601   0.94313
  253  C   1.06180   0.96087   0.95036   0.94380
  254  C   1.06097   0.95517   0.97084   0.94118
  255  C   1.06039   0.93660   0.94323   0.94624
  256  C   1.05915   0.93556   0.94514   0.95613
  257  C   1.04337   1.09515   0.92867   0.97577
  258  C   1.06303   0.94598   0.94388   0.94653
  259  C   1.03941   0.97843   1.12157   0.93045
  260  C   1.06003   0.93230   0.96551   0.95377
  261  C   1.06186   0.96247   0.95081   0.94498
  262  C   1.06194   0.95254   0.94091   0.95985
  263  C   1.04193   1.10639   0.97772   0.92891
  264  C   1.05910   0.93203   0.97376   0.95522
  265  C   1.05986   0.99869   0.96364   1.01036
  266  C   1.06099   0.95410   0.98133   0.98739
  267  C   1.05275   1.03099   1.01596   0.96433
  268  C   1.07845   0.94686   0.90841   0.91317
  269  C   1.07678   0.91811   0.91834   0.94348
  270  C   1.06199   0.95357   0.98053   0.97623
  271  C   1.06499   0.97650   0.96126   0.98293
  272  C   1.06131   0.95427   0.97802   0.98210
  273  C   1.07121   0.94633   0.94825   0.94686
  274  C   1.07903   0.94485   0.90809   0.90423
  275  C   1.05355   1.03189   0.96429   1.01621
  276  C   1.07306   0.94005   0.94117   0.94618
  277  C   1.07750   0.91526   0.94371   0.91726
  278  C   1.07923   0.94712   0.90388   0.90990
  279  C   1.07330   0.94038   0.94606   0.94107
  280  C   1.07249   0.94149   0.94640   0.94303
  281  C   1.05557   1.01946   1.00660   0.96232
  282  C   1.07716   0.91979   0.92177   0.94386
  283  C   1.05755   0.95731   1.00119   0.99318
  284  C   1.06116   0.99387   1.00410   0.96331
  285  C   1.07633   0.92092   0.94353   0.92024
  286  C   1.07858   0.94743   0.91317   0.90777
  287  C   1.05474   1.02204   0.96293   1.00877
  288  C   1.05968   0.99787   1.00983   0.96338
  289  H   0.82719
  290  H   0.82276
  291  H   0.82176
  292  H   0.82493
  293  H   0.81936
  294  H   0.82416
  295  H   0.82741
  296  H   0.82476
  297  H   0.82196
  298  H   0.82549
  299  H   0.82340
  300  H   0.81852
  301  H   0.81937
  302  H   0.82634
  303  H   0.81919
  304  H   0.81920
  305  H   0.82215
  306  H   0.81668
  307  H   0.82213
  308  H   0.82760
  309  H   0.81838
  310  H   0.82527
  311  H   0.82172
  312  H   0.82665
  313  H   0.83009
  314  H   0.82082
  315  H   0.82388
  316  H   0.83009
  317  H   0.82826
  318  H   0.82137
  319  H   0.83125
  320  H   0.82137
  321  H   0.81716
  322  H   0.83214
  323  H   0.82623
  324  H   0.81502
  325  H   0.82826
  326  H   0.83240
  327  H   0.81489
  328  H   0.81592
  329  H   0.82491
  330  H   0.82422
  331  H   0.82060
  332  H   0.83005
  333  H   0.82713
  334  H   0.83078
  335  H   0.82431
  336  H   0.83041
  337  H   0.82125
  338  H   0.83332
  339  H   0.83391
  340  H   0.81536
  341  H   0.81850
  342  H   0.83426
  343  H   0.81847
  344  H   0.83436
  345  H   0.82716
  346  H   0.81574
  347  H   0.83248
  348  H   0.82270
  349  H   0.81822
  350  H   0.81491
  351  H   0.82282
  352  H   0.82386
  353  H   0.83312
  354  H   0.81786
  355  H   0.83412
  356  H   0.82033
  357  H   0.81788
  358  H   0.81524
  359  H   0.83385
  360  H   0.82133

 **********************
 *                    *
 * JOB ENDED NORMALLY *
 *                    *
 **********************



 TOTAL JOB TIME:           535.60 SECONDS

 == MOPAC DONE ==
