 *******************************************************************************
 **                                                                           **
 **                              MOPAC v22.1.0                                **
 **                                                                           **
 *******************************************************************************
 **          Digital Object Identifier (DOI): 10.5281/zenodo.6511958          **
 **    Visit the DOI location for information on how to cite this program.    **
 *******************************************************************************

                              PM7 CALCULATION RESULTS

 *******************************************************************************
 *  CALCULATION DONE:                                Wed Jan 31 14:41:22 2024  *
 *  PM7        - The PM7 Hamiltonian to be used
 *  NOOPT      - DO NOT OPTIMIZE ANY COORDINATES
 *
 *
 *
 *                 CHARGE ON SYSTEM = 0
 *
 *
 *
 *  T=         - A TIME OF 172800.0 SECONDS REQUESTED
 *  DUMP=N     - RESTART FILE WRITTEN EVERY 7200.0 SECONDS REQUESTED
 *******************************************************************************
PM7 CHARGE=0 NOOPT


   ATOM   CHEMICAL          X               Y               Z
  NUMBER   SYMBOL      (ANGSTROMS)     (ANGSTROMS)     (ANGSTROMS)

     1       N         23.22514300     21.99035200     23.90873100   
     2       N         15.97285200      5.17264300      6.17876900   
     3       N          0.16126900     11.19014300     14.11464800   
     4       N         14.11464800      0.16126900     11.19014300   
     5       N         23.90873100     23.22514300     21.99035200   
     6       N         21.99035200     23.90873100     23.22514300   
     7       N         11.19014300     14.11464800      0.16126900   
     8       N          3.93785200      6.86235700     17.89123100   
     9       N         18.89735700     18.21376900     20.13214800   
    10       N         20.13214800     18.89735700     18.21376900   
    11       N         18.21376900     20.13214800     18.89735700   
    12       N          6.86235700     17.89123100      3.93785200   
    13       N         17.89123100      3.93785200      6.86235700   
    14       N          2.07964800     11.87373100     12.87985700   
    15       N          0.84485700      9.95535200     12.19626900   
    16       N         12.87985700      2.07964800     11.87373100   
    17       N         12.19626900      0.84485700      9.95535200   
    18       N         11.87373100     12.87985700      2.07964800   
    19       N          9.95535200     12.19626900      0.84485700   
    20       N          5.17264300      6.17876900     15.97285200   
    21       N          5.85623100      8.09714800     17.20764300   
    22       N          8.09714800     17.20764300      5.85623100   
    23       N          6.17876900     15.97285200      5.17264300   
    24       N         17.20764300      5.85623100      8.09714800   
    25       C         17.76606700     14.46125600     21.22974000   
    26       C          8.44375600     23.78356700      8.85776000   
    27       C          2.84026000      5.73106700     21.64374400   
    28       C         21.64374400      2.84026000      5.73106700   
    29       C         21.22974000     17.76606700     14.46125600   
    30       C         14.46125600     21.22974000     17.76606700   
    31       C          5.73106700     21.64374400      2.84026000   
    32       C         20.47875600     12.32143300     15.21224000   
    33       C          0.28643300     20.89276000      3.59124400   
    34       C          3.59124400      0.28643300     20.89276000   
    35       C         20.89276000      3.59124400      0.28643300   
    36       C         12.32143300     15.21224000     20.47875600   
    37       C         15.21224000     20.47875600     12.32143300   
    38       C          9.60874400      9.19474000     18.33893300   
    39       C          6.30393300      2.42625600     14.87526000   
    40       C         18.33893300      9.60874400      9.19474000   
    41       C         14.87526000      6.30393300      2.42625600   
    42       C          9.19474000     18.33893300      9.60874400   
    43       C          2.42625600     14.87526000      6.30393300   
    44       C         23.78356700      8.85776000      8.44375600   
    45       C          3.17724000     15.62624400     11.74856700   
    46       C         15.62624400     11.74856700      3.17724000   
    47       C          8.85776000      8.44375600     23.78356700   
    48       C         11.74856700      3.17724000     15.62624400   
    49       C         18.94068300     14.63696700     20.42098800   
    50       C          8.61946700      0.88818300      9.66651200   
    51       C          3.64901200      6.90568300     21.46803300   
    52       C         21.46803300      3.64901200      6.90568300   
    53       C         20.42098800     18.94068300     14.63696700   
    54       C         14.63696700     20.42098800     18.94068300   
    55       C          6.90568300     21.46803300      3.64901200   
    56       C         20.65446700     11.14681700     14.40348800   
    57       C         23.18181700     21.70151200      3.41553300   
    58       C          3.41553300     23.18181700     21.70151200   
    59       C         21.70151200      3.41553300     23.18181700   
    60       C         11.14681700     14.40348800     20.65446700   
    61       C         14.40348800     20.65446700     11.14681700   
    62       C          9.43303300      8.38598800     17.16431700   
    63       C          5.12931700      2.60196700     15.68401200   
    64       C         17.16431700      9.43303300      8.38598800   
    65       C         15.68401200      5.12931700      2.60196700   
    66       C          8.38598800     17.16431700      9.43303300   
    67       C          2.60196700     15.68401200      5.12931700   
    68       C          0.88818300      9.66651200      8.61946700   
    69       C          2.36848800     15.45053300     12.92318300   
    70       C         15.45053300     12.92318300      2.36848800   
    71       C          9.66651200      8.61946700      0.88818300   
    72       C         12.92318300      2.36848800     15.45053300   
    73       C         14.79342200     17.30392300     20.81332900   
    74       C         11.28642300     20.81092200      9.27417100   
    75       C          3.25667100      2.75842200     18.80107700   
    76       C         18.80107700      3.25667100      2.75842200   
    77       C         20.81332900     14.79342200     17.30392300   
    78       C         17.30392300     20.81332900     14.79342200   
    79       C          2.75842200     18.80107700      3.25667100   
    80       C         23.32142300     15.29407800     14.79582900   
    81       C          3.25907800     21.30917100      0.74857700   
    82       C          0.74857700      3.25907800     21.30917100   
    83       C         21.30917100      0.74857700      3.25907800   
    84       C         15.29407800     14.79582900     23.32142300   
    85       C         14.79582900     23.32142300     15.29407800   
    86       C          6.76607700      8.77832900     21.31157800   
    87       C          9.27657800      5.26892300     15.29167100   
    88       C         21.31157800      6.76607700      8.77832900   
    89       C         15.29167100      9.27657800      5.26892300   
    90       C          8.77832900     21.31157800      6.76607700   
    91       C          5.26892300     15.29167100      9.27657800   
    92       C         20.81092200      9.27417100     11.28642300   
    93       C          2.76082900     12.78357700      8.77592200   
    94       C         12.78357700      8.77592200      2.76082900   
    95       C          9.27417100     11.28642300     20.81092200   
    96       C          8.77592200      2.76082900     12.78357700   
    97       C         15.55884800     15.38313700     22.14199300   
    98       C          9.36563700     21.57634800      7.94550700   
    99       C          1.92800700      3.52384800     20.72186300   
   100       C         20.72186300      1.92800700      3.52384800   
   101       C         22.14199300     15.55884800     15.38313700   
   102       C         15.38313700     22.14199300     15.55884800   
   103       C          3.52384800     20.72186300      1.92800700   
   104       C         21.40063700     14.52865200     16.12449300   
   105       C          2.49365200     19.98050700      2.66936300   
   106       C          2.66936300      2.49365200     19.98050700   
   107       C         19.98050700      2.66936300      2.49365200   
   108       C         14.52865200     16.12449300     21.40063700   
   109       C         16.12449300     21.40063700     14.52865200   
   110       C          8.68686300     10.10699300     20.54615200   
   111       C          8.51115200      3.34813700     13.96300700   
   112       C         20.54615200      8.68686300     10.10699300   
   113       C         13.96300700      8.51115200      3.34813700   
   114       C         10.10699300     20.54615200      8.68686300   
   115       C          3.34813700     13.96300700      8.51115200   
   116       C         21.57634800      7.94550700      9.36563700   
   117       C          4.08949300     14.70436300      9.54134800   
   118       C         14.70436300      9.54134800      4.08949300   
   119       C          7.94550700      9.36563700     21.57634800   
   120       C          9.54134800      4.08949300     14.70436300   
   121       C         19.21748800     19.98050700     17.98510400   
   122       C         13.96300700      1.16498800     12.10239600   
   123       C          6.08489600      7.18248800     16.12449300   
   124       C         16.12449300      6.08489600      7.18248800   
   125       C         17.98510400     19.21748800     19.98050700   
   126       C         19.98050700     17.98510400     19.21748800   
   127       C          7.18248800     16.12449300      6.08489600   
   128       C          1.92800700     10.87001200     11.96760400   
   129       C         22.90501200      0.06739600     22.14199300   
   130       C         22.14199300     22.90501200      0.06739600   
   131       C          0.06739600     22.14199300     22.90501200   
   132       C         10.87001200     11.96760400      1.92800700   
   133       C         11.96760400      1.92800700     10.87001200   
   134       C          4.08949300      5.95010400     16.88751200   
   135       C          4.85251200      7.94550700     18.11989600   
   136       C         16.88751200      4.08949300      5.95010400   
   137       C         18.11989600      4.85251200      7.94550700   
   138       C          5.95010400     16.88751200      4.08949300   
   139       C          7.94550700     18.11989600      4.85251200   
   140       C          1.16498800     12.10239600     13.96300700   
   141       C         24.00260400     10.10699300     13.19998800   
   142       C         10.10699300     13.19998800     24.00260400   
   143       C         12.10239600     13.96300700      1.16498800   
   144       C         13.19998800     24.00260400     10.10699300   
   145       C         18.45687600     16.94528000     20.56300100   
   146       C         10.92778000      0.40437600      9.52449900   
   147       C          3.50699900      6.42187600     19.15972000   
   148       C         19.15972000      3.50699900      6.42187600   
   149       C         20.56300100     18.45687600     16.94528000   
   150       C         16.94528000     20.56300100     18.45687600   
   151       C          6.42187600     19.15972000      3.50699900   
   152       C         22.96278000     11.63062400     14.54550100   
   153       C         23.66562400     21.55949900      1.10722000   
   154       C          1.10722000     23.66562400     21.55949900   
   155       C         21.55949900      1.10722000     23.66562400   
   156       C         11.63062400     14.54550100     22.96278000   
   157       C         14.54550100     22.96278000     11.63062400   
   158       C          7.12472000      8.52800100     17.64812400   
   159       C          5.61312400      4.91028000     15.54199900   
   160       C         17.64812400      7.12472000      8.52800100   
   161       C         15.54199900      5.61312400      4.91028000   
   162       C          8.52800100     17.64812400      7.12472000   
   163       C          4.91028000     15.54199900      5.61312400   
   164       C          0.40437600      9.52449900     10.92778000   
   165       C          2.51050100     13.14222000     12.43937600   
   166       C         13.14222000     12.43937600      2.51050100   
   167       C          9.52449900     10.92778000      0.40437600   
   168       C         12.43937600      2.51050100     13.14222000   
   169       C         16.54812500     19.02011400     20.18991600   
   170       C         13.00261400     22.56562500      9.89758400   
   171       C          3.88008400      4.51312500     17.08488600   
   172       C         17.08488600      3.88008400      4.51312500   
   173       C         20.18991600     16.54812500     19.02011400   
   174       C         19.02011400     20.18991600     16.54812500   
   175       C          4.51312500     17.08488600      3.88008400   
   176       C          0.96761400     13.53937500     14.17241600   
   177       C          1.50437500     21.93258400     23.10238600   
   178       C         23.10238600      1.50437500     21.93258400   
   179       C         21.93258400     23.10238600      1.50437500   
   180       C         13.53937500     14.17241600      0.96761400   
   181       C         14.17241600      0.96761400     13.53937500   
   182       C          5.04988600      8.15491600     19.55687500   
   183       C          7.52187500      6.98511400     15.91508400   
   184       C         19.55687500      5.04988600      8.15491600   
   185       C         15.91508400      7.52187500      6.98511400   
   186       C          8.15491600     19.55687500      5.04988600   
   187       C          6.98511400     15.91508400      7.52187500   
   188       C         22.56562500      9.89758400     13.00261400   
   189       C          2.13741600     11.06738600     10.53062500   
   190       C         11.06738600     10.53062500      2.13741600   
   191       C          9.89758400     13.00261400     22.56562500   
   192       C         10.53062500      2.13741600     11.06738600   
   193       C         17.16672400     16.79123200     21.00829600   
   194       C         10.77373200     23.18422400      9.07920400   
   195       C          3.06170400      5.13172400     19.31376800   
   196       C         19.31376800      3.06170400      5.13172400   
   197       C         21.00829600     17.16672400     16.79123200   
   198       C         16.79123200     21.00829600     17.16672400   
   199       C          5.13172400     19.31376800      3.06170400   
   200       C         22.80873200     12.92077600     14.99079600   
   201       C          0.88577600     21.11420400      1.26126800   
   202       C          1.26126800      0.88577600     21.11420400   
   203       C         21.11420400      1.26126800      0.88577600   
   204       C         12.92077600     14.99079600     22.80873200   
   205       C         14.99079600     22.80873200     12.92077600   
   206       C          7.27876800      8.97329600     18.93827600   
   207       C          6.90327600      4.75623200     15.09670400   
   208       C         18.93827600      7.27876800      8.97329600   
   209       C         15.09670400      6.90327600      4.75623200   
   210       C          8.97329600     18.93827600      7.27876800   
   211       C          4.75623200     15.09670400      6.90327600   
   212       C         23.18422400      9.07920400     10.77373200   
   213       C          2.95579600     13.29626800     11.14922400   
   214       C         13.29626800     11.14922400      2.95579600   
   215       C          9.07920400     10.77373200     23.18422400   
   216       C         11.14922400      2.95579600     13.29626800   
   217       C         16.16300500     17.81420700     20.72908400   
   218       C         11.79670700     22.18050500      9.35841600   
   219       C          3.34091600      4.12800500     18.29079300   
   220       C         18.29079300      3.34091600      4.12800500   
   221       C         20.72908400     16.16300500     17.81420700   
   222       C         17.81420700     20.72908400     16.16300500   
   223       C          4.12800500     18.29079300      3.34091600   
   224       C         23.83170700     13.92449500     14.71158400   
   225       C          1.88949500     21.39341600      0.23829300   
   226       C          0.23829300      1.88949500     21.39341600   
   227       C         21.39341600      0.23829300      1.88949500   
   228       C         13.92449500     14.71158400     23.83170700   
   229       C         14.71158400     23.83170700     13.92449500   
   230       C          6.25579300      8.69408400     19.94199500   
   231       C          7.90699500      5.77920700     15.37591600   
   232       C         19.94199500      6.25579300      8.69408400   
   233       C         15.37591600      7.90699500      5.77920700   
   234       C          8.69408400     19.94199500      6.25579300   
   235       C          5.77920700     15.37591600      7.90699500   
   236       C         22.18050500      9.35841600     11.79670700   
   237       C          2.67658400     12.27329300     10.14550500   
   238       C         12.27329300     10.14550500      2.67658400   
   239       C          9.35841600     11.79670700     22.18050500   
   240       C         10.14550500      2.67658400     12.27329300   
   241       C         19.29932600     15.89101400     20.03346100   
   242       C          9.87351400      1.24682600     10.05403900   
   243       C          4.03653900      7.26432600     20.21398600   
   244       C         20.21398600      4.03653900      7.26432600   
   245       C         20.03346100     19.29932600     15.89101400   
   246       C         15.89101400     20.03346100     19.29932600   
   247       C          7.26432600     20.21398600      4.03653900   
   248       C         21.90851400     10.78817400     14.01596100   
   249       C         22.82317400     22.08903900      2.16148600   
   250       C          2.16148600     22.82317400     22.08903900   
   251       C         22.08903900      2.16148600     22.82317400   
   252       C         10.78817400     14.01596100     21.90851400   
   253       C         14.01596100     21.90851400     10.78817400   
   254       C          8.17898600      7.99846100     16.80567400   
   255       C          4.77067400      3.85601400     16.07153900   
   256       C         16.80567400      8.17898600      7.99846100   
   257       C         16.07153900      4.77067400      3.85601400   
   258       C          7.99846100     16.80567400      8.17898600   
   259       C          3.85601400     16.07153900      4.77067400   
   260       C          1.24682600     10.05403900      9.87351400   
   261       C          1.98096100     14.19648600     13.28182600   
   262       C         14.19648600     13.28182600      1.98096100   
   263       C         10.05403900      9.87351400      1.24682600   
   264       C         13.28182600      1.98096100     14.19648600   
   265       C         16.88029100     15.47701000     21.48728900   
   266       C          9.45951000     22.89779100      8.60021100   
   267       C          2.58271100      4.84529100     20.62799000   
   268       C         20.62799000      2.58271100      4.84529100   
   269       C         21.48728900     16.88029100     15.47701000   
   270       C         15.47701000     21.48728900     16.88029100   
   271       C          4.84529100     20.62799000      2.58271100   
   272       C         21.49451000     13.20720900     15.46978900   
   273       C          1.17220900     20.63521100      2.57549000   
   274       C          2.57549000      1.17220900     20.63521100   
   275       C         20.63521100      2.57549000      1.17220900   
   276       C         13.20720900     15.46978900     21.49451000   
   277       C         15.46978900     21.49451000     13.20720900   
   278       C          8.59299000      9.45228900     19.22470900   
   279       C          7.18970900      3.44201000     14.61771100   
   280       C         19.22470900      8.59299000      9.45228900   
   281       C         14.61771100      7.18970900      3.44201000   
   282       C          9.45228900     19.22470900      8.59299000   
   283       C          3.44201000     14.61771100      7.18970900   
   284       C         22.89779100      8.60021100      9.45951000   
   285       C          3.43478900     14.61049000     10.86279100   
   286       C         14.61049000     10.86279100      3.43478900   
   287       C          8.60021100      9.45951000     22.89779100   
   288       C         10.86279100      3.43478900     14.61049000   
   289       H         13.45031600     21.59801100     17.55184400   
   290       H         15.58051100     19.46781600     12.53565600   
   291       H          6.51815600      1.41531600     14.50698900   
   292       H         14.50698900      6.51815600      1.41531600   
   293       H         17.55184400     13.45031600     21.59801100   
   294       H         21.59801100     17.55184400     13.45031600   
   295       H          1.41531600     14.50698900      6.51815600   
   296       H          3.54551100     16.63718400     11.53434400   
   297       H          4.60218400      0.50065600     20.52448900   
   298       H         20.52448900      4.60218400      0.50065600   
   299       H          0.50065600     20.52448900      4.60218400   
   300       H         16.63718400     11.53434400      3.54551100   
   301       H         11.53434400      3.54551100     16.63718400   
   302       H          2.47198900      5.51684400     22.65468400   
   303       H         10.61968400      9.56301100     18.55315600   
   304       H         22.65468400      2.47198900      5.51684400   
   305       H         18.55315600     10.61968400      9.56301100   
   306       H          5.51684400     22.65468400      2.47198900   
   307       H          9.56301100     18.55315600     10.61968400   
   308       H         19.46781600     12.53565600     15.58051100   
   309       H         23.56934400      8.48948900      7.43281600   
   310       H          8.48948900      7.43281600     23.56934400   
   311       H         12.53565600     15.58051100     19.46781600   
   312       H          7.43281600     23.56934400      8.48948900   
   313       H         13.74878400     20.12733400     19.49910700   
   314       H         14.10983400     19.76628400     10.58839300   
   315       H          4.57089300      1.71378400     15.97766600   
   316       H         15.97766600      4.57089300      1.71378400   
   317       H         19.49910700     13.74878400     20.12733400   
   318       H         20.12733400     19.49910700     13.74878400   
   319       H          1.71378400     15.97766600      4.57089300   
   320       H          2.07483400     16.33871600     13.48160700   
   321       H          4.30371600     22.62339300     21.99516600   
   322       H         21.99516600      4.30371600     22.62339300   
   323       H         22.62339300     21.99516600      4.30371600   
   324       H         16.33871600     13.48160700      2.07483400   
   325       H         13.48160700      2.07483400     16.33871600   
   326       H          3.94266600      7.46410700     22.35621600   
   327       H         10.32121600      8.09233400     16.60589300   
   328       H         22.35621600      3.94266600      7.46410700   
   329       H         16.60589300     10.32121600      8.09233400   
   330       H          7.46410700     22.35621600      3.94266600   
   331       H          8.09233400     16.60589300     10.32121600   
   332       H         19.76628400     10.58839300     14.10983400   
   333       H          1.44660700      9.96016600      7.73128400   
   334       H          9.96016600      7.73128400      1.44660700   
   335       H         10.58839300     14.10983400     19.76628400   
   336       H          7.73128400      1.44660700      9.96016600   
   337       H         14.00392600     17.89845200     20.33674300   
   338       H         11.88095200     20.02142600      9.75075700   
   339       H          3.73325700      1.96892600     18.20654800   
   340       H         18.20654800      3.73325700      1.96892600   
   341       H         20.33674300     14.00392600     17.89845200   
   342       H         17.89845200     20.33674300     14.00392600   
   343       H          1.96892600     18.20654800      3.73325700   
   344       H         23.91595200     16.08357400     14.31924300   
   345       H          4.04857400     21.78575700      0.15404800   
   346       H          0.15404800      4.04857400     21.78575700   
   347       H         21.78575700      0.15404800      4.04857400   
   348       H         16.08357400     14.31924300     23.91595200   
   349       H         14.31924300     23.91595200     16.08357400   
   350       H          6.17154800      8.30174300     22.10107400   
   351       H         10.06607400      5.86345200     15.76825700   
   352       H         22.10107400      6.17154800      8.30174300   
   353       H         15.76825700     10.06607400      5.86345200   
   354       H          8.30174300     22.10107400      6.17154800   
   355       H          5.86345200     15.76825700     10.06607400   
   356       H         20.02142600      9.75075700     11.88095200   
   357       H          2.28424300     12.18904800      7.98642600   
   358       H         12.18904800      7.98642600      2.28424300   
   359       H          9.75075700     11.88095200     20.02142600   
   360       H          7.98642600      2.28424300     12.18904800   
   361      Tv         24.07000000      0.00000000      0.00000000   
   362      Tv          0.00000000     24.07000000      0.00000000   
   363      Tv          0.00000000      0.00000000     24.07000000   


                   THE SYSTEM IS A SOLID


                UNIT CELL TRANSLATION VECTORS

              X                Y              Z
    T1 =    24.0700000      0.0000000      0.0000000
    T2 =     0.0000000     24.0700000      0.0000000
    T3 =     0.0000000      0.0000000     24.0700000


          CARTESIAN COORDINATES 

    NO.       ATOM           X           Y           Z

     1         N         23.2251     21.9904     23.9087
     2         N         15.9729      5.1726      6.1788
     3         N          0.1613     11.1901     14.1146
     4         N         14.1146      0.1613     11.1901
     5         N         23.9087     23.2251     21.9904
     6         N         21.9904     23.9087     23.2251
     7         N         11.1901     14.1146      0.1613
     8         N          3.9379      6.8624     17.8912
     9         N         18.8974     18.2138     20.1321
    10         N         20.1321     18.8974     18.2138
    11         N         18.2138     20.1321     18.8974
    12         N          6.8624     17.8912      3.9379
    13         N         17.8912      3.9379      6.8624
    14         N          2.0796     11.8737     12.8799
    15         N          0.8449      9.9554     12.1963
    16         N         12.8799      2.0796     11.8737
    17         N         12.1963      0.8449      9.9554
    18         N         11.8737     12.8799      2.0796
    19         N          9.9554     12.1963      0.8449
    20         N          5.1726      6.1788     15.9729
    21         N          5.8562      8.0971     17.2076
    22         N          8.0971     17.2076      5.8562
    23         N          6.1788     15.9729      5.1726
    24         N         17.2076      5.8562      8.0971
    25         C         17.7661     14.4613     21.2297
    26         C          8.4438     23.7836      8.8578
    27         C          2.8403      5.7311     21.6437
    28         C         21.6437      2.8403      5.7311
    29         C         21.2297     17.7661     14.4613
    30         C         14.4613     21.2297     17.7661
    31         C          5.7311     21.6437      2.8403
    32         C         20.4788     12.3214     15.2122
    33         C          0.2864     20.8928      3.5912
    34         C          3.5912      0.2864     20.8928
    35         C         20.8928      3.5912      0.2864
    36         C         12.3214     15.2122     20.4788
    37         C         15.2122     20.4788     12.3214
    38         C          9.6087      9.1947     18.3389
    39         C          6.3039      2.4263     14.8753
    40         C         18.3389      9.6087      9.1947
    41         C         14.8753      6.3039      2.4263
    42         C          9.1947     18.3389      9.6087
    43         C          2.4263     14.8753      6.3039
    44         C         23.7836      8.8578      8.4438
    45         C          3.1772     15.6262     11.7486
    46         C         15.6262     11.7486      3.1772
    47         C          8.8578      8.4438     23.7836
    48         C         11.7486      3.1772     15.6262
    49         C         18.9407     14.6370     20.4210
    50         C          8.6195      0.8882      9.6665
    51         C          3.6490      6.9057     21.4680
    52         C         21.4680      3.6490      6.9057
    53         C         20.4210     18.9407     14.6370
    54         C         14.6370     20.4210     18.9407
    55         C          6.9057     21.4680      3.6490
    56         C         20.6545     11.1468     14.4035
    57         C         23.1818     21.7015      3.4155
    58         C          3.4155     23.1818     21.7015
    59         C         21.7015      3.4155     23.1818
    60         C         11.1468     14.4035     20.6545
    61         C         14.4035     20.6545     11.1468
    62         C          9.4330      8.3860     17.1643
    63         C          5.1293      2.6020     15.6840
    64         C         17.1643      9.4330      8.3860
    65         C         15.6840      5.1293      2.6020
    66         C          8.3860     17.1643      9.4330
    67         C          2.6020     15.6840      5.1293
    68         C          0.8882      9.6665      8.6195
    69         C          2.3685     15.4505     12.9232
    70         C         15.4505     12.9232      2.3685
    71         C          9.6665      8.6195      0.8882
    72         C         12.9232      2.3685     15.4505
    73         C         14.7934     17.3039     20.8133
    74         C         11.2864     20.8109      9.2742
    75         C          3.2567      2.7584     18.8011
    76         C         18.8011      3.2567      2.7584
    77         C         20.8133     14.7934     17.3039
    78         C         17.3039     20.8133     14.7934
    79         C          2.7584     18.8011      3.2567
    80         C         23.3214     15.2941     14.7958
    81         C          3.2591     21.3092      0.7486
    82         C          0.7486      3.2591     21.3092
    83         C         21.3092      0.7486      3.2591
    84         C         15.2941     14.7958     23.3214
    85         C         14.7958     23.3214     15.2941
    86         C          6.7661      8.7783     21.3116
    87         C          9.2766      5.2689     15.2917
    88         C         21.3116      6.7661      8.7783
    89         C         15.2917      9.2766      5.2689
    90         C          8.7783     21.3116      6.7661
    91         C          5.2689     15.2917      9.2766
    92         C         20.8109      9.2742     11.2864
    93         C          2.7608     12.7836      8.7759
    94         C         12.7836      8.7759      2.7608
    95         C          9.2742     11.2864     20.8109
    96         C          8.7759      2.7608     12.7836
    97         C         15.5588     15.3831     22.1420
    98         C          9.3656     21.5763      7.9455
    99         C          1.9280      3.5238     20.7219
   100         C         20.7219      1.9280      3.5238
   101         C         22.1420     15.5588     15.3831
   102         C         15.3831     22.1420     15.5588
   103         C          3.5238     20.7219      1.9280
   104         C         21.4006     14.5287     16.1245
   105         C          2.4937     19.9805      2.6694
   106         C          2.6694      2.4937     19.9805
   107         C         19.9805      2.6694      2.4937
   108         C         14.5287     16.1245     21.4006
   109         C         16.1245     21.4006     14.5287
   110         C          8.6869     10.1070     20.5462
   111         C          8.5112      3.3481     13.9630
   112         C         20.5462      8.6869     10.1070
   113         C         13.9630      8.5112      3.3481
   114         C         10.1070     20.5462      8.6869
   115         C          3.3481     13.9630      8.5112
   116         C         21.5763      7.9455      9.3656
   117         C          4.0895     14.7044      9.5413
   118         C         14.7044      9.5413      4.0895
   119         C          7.9455      9.3656     21.5763
   120         C          9.5413      4.0895     14.7044
   121         C         19.2175     19.9805     17.9851
   122         C         13.9630      1.1650     12.1024
   123         C          6.0849      7.1825     16.1245
   124         C         16.1245      6.0849      7.1825
   125         C         17.9851     19.2175     19.9805
   126         C         19.9805     17.9851     19.2175
   127         C          7.1825     16.1245      6.0849
   128         C          1.9280     10.8700     11.9676
   129         C         22.9050      0.0674     22.1420
   130         C         22.1420     22.9050      0.0674
   131         C          0.0674     22.1420     22.9050
   132         C         10.8700     11.9676      1.9280
   133         C         11.9676      1.9280     10.8700
   134         C          4.0895      5.9501     16.8875
   135         C          4.8525      7.9455     18.1199
   136         C         16.8875      4.0895      5.9501
   137         C         18.1199      4.8525      7.9455
   138         C          5.9501     16.8875      4.0895
   139         C          7.9455     18.1199      4.8525
   140         C          1.1650     12.1024     13.9630
   141         C         24.0026     10.1070     13.2000
   142         C         10.1070     13.2000     24.0026
   143         C         12.1024     13.9630      1.1650
   144         C         13.2000     24.0026     10.1070
   145         C         18.4569     16.9453     20.5630
   146         C         10.9278      0.4044      9.5245
   147         C          3.5070      6.4219     19.1597
   148         C         19.1597      3.5070      6.4219
   149         C         20.5630     18.4569     16.9453
   150         C         16.9453     20.5630     18.4569
   151         C          6.4219     19.1597      3.5070
   152         C         22.9628     11.6306     14.5455
   153         C         23.6656     21.5595      1.1072
   154         C          1.1072     23.6656     21.5595
   155         C         21.5595      1.1072     23.6656
   156         C         11.6306     14.5455     22.9628
   157         C         14.5455     22.9628     11.6306
   158         C          7.1247      8.5280     17.6481
   159         C          5.6131      4.9103     15.5420
   160         C         17.6481      7.1247      8.5280
   161         C         15.5420      5.6131      4.9103
   162         C          8.5280     17.6481      7.1247
   163         C          4.9103     15.5420      5.6131
   164         C          0.4044      9.5245     10.9278
   165         C          2.5105     13.1422     12.4394
   166         C         13.1422     12.4394      2.5105
   167         C          9.5245     10.9278      0.4044
   168         C         12.4394      2.5105     13.1422
   169         C         16.5481     19.0201     20.1899
   170         C         13.0026     22.5656      9.8976
   171         C          3.8801      4.5131     17.0849
   172         C         17.0849      3.8801      4.5131
   173         C         20.1899     16.5481     19.0201
   174         C         19.0201     20.1899     16.5481
   175         C          4.5131     17.0849      3.8801
   176         C          0.9676     13.5394     14.1724
   177         C          1.5044     21.9326     23.1024
   178         C         23.1024      1.5044     21.9326
   179         C         21.9326     23.1024      1.5044
   180         C         13.5394     14.1724      0.9676
   181         C         14.1724      0.9676     13.5394
   182         C          5.0499      8.1549     19.5569
   183         C          7.5219      6.9851     15.9151
   184         C         19.5569      5.0499      8.1549
   185         C         15.9151      7.5219      6.9851
   186         C          8.1549     19.5569      5.0499
   187         C          6.9851     15.9151      7.5219
   188         C         22.5656      9.8976     13.0026
   189         C          2.1374     11.0674     10.5306
   190         C         11.0674     10.5306      2.1374
   191         C          9.8976     13.0026     22.5656
   192         C         10.5306      2.1374     11.0674
   193         C         17.1667     16.7912     21.0083
   194         C         10.7737     23.1842      9.0792
   195         C          3.0617      5.1317     19.3138
   196         C         19.3138      3.0617      5.1317
   197         C         21.0083     17.1667     16.7912
   198         C         16.7912     21.0083     17.1667
   199         C          5.1317     19.3138      3.0617
   200         C         22.8087     12.9208     14.9908
   201         C          0.8858     21.1142      1.2613
   202         C          1.2613      0.8858     21.1142
   203         C         21.1142      1.2613      0.8858
   204         C         12.9208     14.9908     22.8087
   205         C         14.9908     22.8087     12.9208
   206         C          7.2788      8.9733     18.9383
   207         C          6.9033      4.7562     15.0967
   208         C         18.9383      7.2788      8.9733
   209         C         15.0967      6.9033      4.7562
   210         C          8.9733     18.9383      7.2788
   211         C          4.7562     15.0967      6.9033
   212         C         23.1842      9.0792     10.7737
   213         C          2.9558     13.2963     11.1492
   214         C         13.2963     11.1492      2.9558
   215         C          9.0792     10.7737     23.1842
   216         C         11.1492      2.9558     13.2963
   217         C         16.1630     17.8142     20.7291
   218         C         11.7967     22.1805      9.3584
   219         C          3.3409      4.1280     18.2908
   220         C         18.2908      3.3409      4.1280
   221         C         20.7291     16.1630     17.8142
   222         C         17.8142     20.7291     16.1630
   223         C          4.1280     18.2908      3.3409
   224         C         23.8317     13.9245     14.7116
   225         C          1.8895     21.3934      0.2383
   226         C          0.2383      1.8895     21.3934
   227         C         21.3934      0.2383      1.8895
   228         C         13.9245     14.7116     23.8317
   229         C         14.7116     23.8317     13.9245
   230         C          6.2558      8.6941     19.9420
   231         C          7.9070      5.7792     15.3759
   232         C         19.9420      6.2558      8.6941
   233         C         15.3759      7.9070      5.7792
   234         C          8.6941     19.9420      6.2558
   235         C          5.7792     15.3759      7.9070
   236         C         22.1805      9.3584     11.7967
   237         C          2.6766     12.2733     10.1455
   238         C         12.2733     10.1455      2.6766
   239         C          9.3584     11.7967     22.1805
   240         C         10.1455      2.6766     12.2733
   241         C         19.2993     15.8910     20.0335
   242         C          9.8735      1.2468     10.0540
   243         C          4.0365      7.2643     20.2140
   244         C         20.2140      4.0365      7.2643
   245         C         20.0335     19.2993     15.8910
   246         C         15.8910     20.0335     19.2993
   247         C          7.2643     20.2140      4.0365
   248         C         21.9085     10.7882     14.0160
   249         C         22.8232     22.0890      2.1615
   250         C          2.1615     22.8232     22.0890
   251         C         22.0890      2.1615     22.8232
   252         C         10.7882     14.0160     21.9085
   253         C         14.0160     21.9085     10.7882
   254         C          8.1790      7.9985     16.8057
   255         C          4.7707      3.8560     16.0715
   256         C         16.8057      8.1790      7.9985
   257         C         16.0715      4.7707      3.8560
   258         C          7.9985     16.8057      8.1790
   259         C          3.8560     16.0715      4.7707
   260         C          1.2468     10.0540      9.8735
   261         C          1.9810     14.1965     13.2818
   262         C         14.1965     13.2818      1.9810
   263         C         10.0540      9.8735      1.2468
   264         C         13.2818      1.9810     14.1965
   265         C         16.8803     15.4770     21.4873
   266         C          9.4595     22.8978      8.6002
   267         C          2.5827      4.8453     20.6280
   268         C         20.6280      2.5827      4.8453
   269         C         21.4873     16.8803     15.4770
   270         C         15.4770     21.4873     16.8803
   271         C          4.8453     20.6280      2.5827
   272         C         21.4945     13.2072     15.4698
   273         C          1.1722     20.6352      2.5755
   274         C          2.5755      1.1722     20.6352
   275         C         20.6352      2.5755      1.1722
   276         C         13.2072     15.4698     21.4945
   277         C         15.4698     21.4945     13.2072
   278         C          8.5930      9.4523     19.2247
   279         C          7.1897      3.4420     14.6177
   280         C         19.2247      8.5930      9.4523
   281         C         14.6177      7.1897      3.4420
   282         C          9.4523     19.2247      8.5930
   283         C          3.4420     14.6177      7.1897
   284         C         22.8978      8.6002      9.4595
   285         C          3.4348     14.6105     10.8628
   286         C         14.6105     10.8628      3.4348
   287         C          8.6002      9.4595     22.8978
   288         C         10.8628      3.4348     14.6105
   289         H         13.4503     21.5980     17.5518
   290         H         15.5805     19.4678     12.5357
   291         H          6.5182      1.4153     14.5070
   292         H         14.5070      6.5182      1.4153
   293         H         17.5518     13.4503     21.5980
   294         H         21.5980     17.5518     13.4503
   295         H          1.4153     14.5070      6.5182
   296         H          3.5455     16.6372     11.5343
   297         H          4.6022      0.5007     20.5245
   298         H         20.5245      4.6022      0.5007
   299         H          0.5007     20.5245      4.6022
   300         H         16.6372     11.5343      3.5455
   301         H         11.5343      3.5455     16.6372
   302         H          2.4720      5.5168     22.6547
   303         H         10.6197      9.5630     18.5532
   304         H         22.6547      2.4720      5.5168
   305         H         18.5532     10.6197      9.5630
   306         H          5.5168     22.6547      2.4720
   307         H          9.5630     18.5532     10.6197
   308         H         19.4678     12.5357     15.5805
   309         H         23.5693      8.4895      7.4328
   310         H          8.4895      7.4328     23.5693
   311         H         12.5357     15.5805     19.4678
   312         H          7.4328     23.5693      8.4895
   313         H         13.7488     20.1273     19.4991
   314         H         14.1098     19.7663     10.5884
   315         H          4.5709      1.7138     15.9777
   316         H         15.9777      4.5709      1.7138
   317         H         19.4991     13.7488     20.1273
   318         H         20.1273     19.4991     13.7488
   319         H          1.7138     15.9777      4.5709
   320         H          2.0748     16.3387     13.4816
   321         H          4.3037     22.6234     21.9952
   322         H         21.9952      4.3037     22.6234
   323         H         22.6234     21.9952      4.3037
   324         H         16.3387     13.4816      2.0748
   325         H         13.4816      2.0748     16.3387
   326         H          3.9427      7.4641     22.3562
   327         H         10.3212      8.0923     16.6059
   328         H         22.3562      3.9427      7.4641
   329         H         16.6059     10.3212      8.0923
   330         H          7.4641     22.3562      3.9427
   331         H          8.0923     16.6059     10.3212
   332         H         19.7663     10.5884     14.1098
   333         H          1.4466      9.9602      7.7313
   334         H          9.9602      7.7313      1.4466
   335         H         10.5884     14.1098     19.7663
   336         H          7.7313      1.4466      9.9602
   337         H         14.0039     17.8985     20.3367
   338         H         11.8810     20.0214      9.7508
   339         H          3.7333      1.9689     18.2065
   340         H         18.2065      3.7333      1.9689
   341         H         20.3367     14.0039     17.8985
   342         H         17.8985     20.3367     14.0039
   343         H          1.9689     18.2065      3.7333
   344         H         23.9160     16.0836     14.3192
   345         H          4.0486     21.7858      0.1540
   346         H          0.1540      4.0486     21.7858
   347         H         21.7858      0.1540      4.0486
   348         H         16.0836     14.3192     23.9160
   349         H         14.3192     23.9160     16.0836
   350         H          6.1715      8.3017     22.1011
   351         H         10.0661      5.8635     15.7683
   352         H         22.1011      6.1715      8.3017
   353         H         15.7683     10.0661      5.8635
   354         H          8.3017     22.1011      6.1715
   355         H          5.8635     15.7683     10.0661
   356         H         20.0214      9.7508     11.8810
   357         H          2.2842     12.1890      7.9864
   358         H         12.1890      7.9864      2.2842
   359         H          9.7508     11.8810     20.0214
   360         H          7.9864      2.2842     12.1890

 General Reference for PM7:
 "Optimization of Parameters for Semiempirical Methods VI: More Modifications to the 
 NDDO Approximations and Re-optimization of Parameters", J. J. P. Stewart, J. Mol. Mod., 1:32, 19 (2013)
 https://link.springer.com/article/10.1007/s00894-012-1667-x

           Empirical Formula: C264 H72 N24  =   360 atoms



      RHF CALCULATION, NO. OF DOUBLY OCCUPIED LEVELS = 624



 ALL CONVERGERS ARE NOW FORCED ON
 SHIFT=10, PULAY ON, CAMP-KING ON
 AND ITERATION COUNTER RESET



 -------------------------------------------------------------------------------
 PM7 CHARGE=0 NOOPT




     NO PARAMETERS MARKED FOR OPTIMIZATION, SO 1SCF WAS USED  
     SCF FIELD WAS ACHIEVED                                   


                              PM7 CALCULATION
                                                       MOPAC v22.1.0 Linux
                                                       Wed Jan 31 14:53:30 2024




          FINAL HEAT OF FORMATION =       2907.51248 KCAL/MOL =   12165.03222 KJ/MOL
          H.o.F. per unit cell    =        121.14635 KCAL, for 24 unit cells, unit cell = C11 H3 N1



          IONIZATION POTENTIAL    =          6.686786 EV
          HOMO LUMO ENERGIES (EV) =         -6.687 -2.935
          NO. OF FILLED LEVELS    =        624
          MOLECULAR WEIGHT        =       3579.6336

                   THE SYSTEM IS A SOLID


                UNIT CELL TRANSLATION VECTORS

              X                Y              Z
    T1 =    24.0700000      0.0000000      0.0000000
    T2 =     0.0000000     24.0700000      0.0000000
    T3 =     0.0000000      0.0000000     24.0700000

          VOLUME OF UNIT CELL     =      13945.313 CUBIC ANGSTROMS

          DENSITY                 =          0.426 GRAMS/CC
                              A   =         24.070 ANGSTROMS
                              B   =         24.070 ANGSTROMS
                              C   =         24.070 ANGSTROMS
                            ALPHA =         90.000 DEGREES
                            BETA  =         90.000 DEGREES
                            GAMMA =         90.000 DEGREES



          SCF CALCULATIONS        =          1

          WALL-CLOCK TIME         =         12 MINUTES AND 8.512 SECONDS
          COMPUTATION TIME        =         12 MINUTES AND 8.503 SECONDS




   ATOM   CHEMICAL          X               Y               Z
  NUMBER   SYMBOL      (ANGSTROMS)     (ANGSTROMS)     (ANGSTROMS)

     1       N         23.22514300     21.99035200     23.90873100   
     2       N         15.97285200      5.17264300      6.17876900   
     3       N          0.16126900     11.19014300     14.11464800   
     4       N         14.11464800      0.16126900     11.19014300   
     5       N         23.90873100     23.22514300     21.99035200   
     6       N         21.99035200     23.90873100     23.22514300   
     7       N         11.19014300     14.11464800      0.16126900   
     8       N          3.93785200      6.86235700     17.89123100   
     9       N         18.89735700     18.21376900     20.13214800   
    10       N         20.13214800     18.89735700     18.21376900   
    11       N         18.21376900     20.13214800     18.89735700   
    12       N          6.86235700     17.89123100      3.93785200   
    13       N         17.89123100      3.93785200      6.86235700   
    14       N          2.07964800     11.87373100     12.87985700   
    15       N          0.84485700      9.95535200     12.19626900   
    16       N         12.87985700      2.07964800     11.87373100   
    17       N         12.19626900      0.84485700      9.95535200   
    18       N         11.87373100     12.87985700      2.07964800   
    19       N          9.95535200     12.19626900      0.84485700   
    20       N          5.17264300      6.17876900     15.97285200   
    21       N          5.85623100      8.09714800     17.20764300   
    22       N          8.09714800     17.20764300      5.85623100   
    23       N          6.17876900     15.97285200      5.17264300   
    24       N         17.20764300      5.85623100      8.09714800   
    25       C         17.76606700     14.46125600     21.22974000   
    26       C          8.44375600     23.78356700      8.85776000   
    27       C          2.84026000      5.73106700     21.64374400   
    28       C         21.64374400      2.84026000      5.73106700   
    29       C         21.22974000     17.76606700     14.46125600   
    30       C         14.46125600     21.22974000     17.76606700   
    31       C          5.73106700     21.64374400      2.84026000   
    32       C         20.47875600     12.32143300     15.21224000   
    33       C          0.28643300     20.89276000      3.59124400   
    34       C          3.59124400      0.28643300     20.89276000   
    35       C         20.89276000      3.59124400      0.28643300   
    36       C         12.32143300     15.21224000     20.47875600   
    37       C         15.21224000     20.47875600     12.32143300   
    38       C          9.60874400      9.19474000     18.33893300   
    39       C          6.30393300      2.42625600     14.87526000   
    40       C         18.33893300      9.60874400      9.19474000   
    41       C         14.87526000      6.30393300      2.42625600   
    42       C          9.19474000     18.33893300      9.60874400   
    43       C          2.42625600     14.87526000      6.30393300   
    44       C         23.78356700      8.85776000      8.44375600   
    45       C          3.17724000     15.62624400     11.74856700   
    46       C         15.62624400     11.74856700      3.17724000   
    47       C          8.85776000      8.44375600     23.78356700   
    48       C         11.74856700      3.17724000     15.62624400   
    49       C         18.94068300     14.63696700     20.42098800   
    50       C          8.61946700      0.88818300      9.66651200   
    51       C          3.64901200      6.90568300     21.46803300   
    52       C         21.46803300      3.64901200      6.90568300   
    53       C         20.42098800     18.94068300     14.63696700   
    54       C         14.63696700     20.42098800     18.94068300   
    55       C          6.90568300     21.46803300      3.64901200   
    56       C         20.65446700     11.14681700     14.40348800   
    57       C         23.18181700     21.70151200      3.41553300   
    58       C          3.41553300     23.18181700     21.70151200   
    59       C         21.70151200      3.41553300     23.18181700   
    60       C         11.14681700     14.40348800     20.65446700   
    61       C         14.40348800     20.65446700     11.14681700   
    62       C          9.43303300      8.38598800     17.16431700   
    63       C          5.12931700      2.60196700     15.68401200   
    64       C         17.16431700      9.43303300      8.38598800   
    65       C         15.68401200      5.12931700      2.60196700   
    66       C          8.38598800     17.16431700      9.43303300   
    67       C          2.60196700     15.68401200      5.12931700   
    68       C          0.88818300      9.66651200      8.61946700   
    69       C          2.36848800     15.45053300     12.92318300   
    70       C         15.45053300     12.92318300      2.36848800   
    71       C          9.66651200      8.61946700      0.88818300   
    72       C         12.92318300      2.36848800     15.45053300   
    73       C         14.79342200     17.30392300     20.81332900   
    74       C         11.28642300     20.81092200      9.27417100   
    75       C          3.25667100      2.75842200     18.80107700   
    76       C         18.80107700      3.25667100      2.75842200   
    77       C         20.81332900     14.79342200     17.30392300   
    78       C         17.30392300     20.81332900     14.79342200   
    79       C          2.75842200     18.80107700      3.25667100   
    80       C         23.32142300     15.29407800     14.79582900   
    81       C          3.25907800     21.30917100      0.74857700   
    82       C          0.74857700      3.25907800     21.30917100   
    83       C         21.30917100      0.74857700      3.25907800   
    84       C         15.29407800     14.79582900     23.32142300   
    85       C         14.79582900     23.32142300     15.29407800   
    86       C          6.76607700      8.77832900     21.31157800   
    87       C          9.27657800      5.26892300     15.29167100   
    88       C         21.31157800      6.76607700      8.77832900   
    89       C         15.29167100      9.27657800      5.26892300   
    90       C          8.77832900     21.31157800      6.76607700   
    91       C          5.26892300     15.29167100      9.27657800   
    92       C         20.81092200      9.27417100     11.28642300   
    93       C          2.76082900     12.78357700      8.77592200   
    94       C         12.78357700      8.77592200      2.76082900   
    95       C          9.27417100     11.28642300     20.81092200   
    96       C          8.77592200      2.76082900     12.78357700   
    97       C         15.55884800     15.38313700     22.14199300   
    98       C          9.36563700     21.57634800      7.94550700   
    99       C          1.92800700      3.52384800     20.72186300   
   100       C         20.72186300      1.92800700      3.52384800   
   101       C         22.14199300     15.55884800     15.38313700   
   102       C         15.38313700     22.14199300     15.55884800   
   103       C          3.52384800     20.72186300      1.92800700   
   104       C         21.40063700     14.52865200     16.12449300   
   105       C          2.49365200     19.98050700      2.66936300   
   106       C          2.66936300      2.49365200     19.98050700   
   107       C         19.98050700      2.66936300      2.49365200   
   108       C         14.52865200     16.12449300     21.40063700   
   109       C         16.12449300     21.40063700     14.52865200   
   110       C          8.68686300     10.10699300     20.54615200   
   111       C          8.51115200      3.34813700     13.96300700   
   112       C         20.54615200      8.68686300     10.10699300   
   113       C         13.96300700      8.51115200      3.34813700   
   114       C         10.10699300     20.54615200      8.68686300   
   115       C          3.34813700     13.96300700      8.51115200   
   116       C         21.57634800      7.94550700      9.36563700   
   117       C          4.08949300     14.70436300      9.54134800   
   118       C         14.70436300      9.54134800      4.08949300   
   119       C          7.94550700      9.36563700     21.57634800   
   120       C          9.54134800      4.08949300     14.70436300   
   121       C         19.21748800     19.98050700     17.98510400   
   122       C         13.96300700      1.16498800     12.10239600   
   123       C          6.08489600      7.18248800     16.12449300   
   124       C         16.12449300      6.08489600      7.18248800   
   125       C         17.98510400     19.21748800     19.98050700   
   126       C         19.98050700     17.98510400     19.21748800   
   127       C          7.18248800     16.12449300      6.08489600   
   128       C          1.92800700     10.87001200     11.96760400   
   129       C         22.90501200      0.06739600     22.14199300   
   130       C         22.14199300     22.90501200      0.06739600   
   131       C          0.06739600     22.14199300     22.90501200   
   132       C         10.87001200     11.96760400      1.92800700   
   133       C         11.96760400      1.92800700     10.87001200   
   134       C          4.08949300      5.95010400     16.88751200   
   135       C          4.85251200      7.94550700     18.11989600   
   136       C         16.88751200      4.08949300      5.95010400   
   137       C         18.11989600      4.85251200      7.94550700   
   138       C          5.95010400     16.88751200      4.08949300   
   139       C          7.94550700     18.11989600      4.85251200   
   140       C          1.16498800     12.10239600     13.96300700   
   141       C         24.00260400     10.10699300     13.19998800   
   142       C         10.10699300     13.19998800     24.00260400   
   143       C         12.10239600     13.96300700      1.16498800   
   144       C         13.19998800     24.00260400     10.10699300   
   145       C         18.45687600     16.94528000     20.56300100   
   146       C         10.92778000      0.40437600      9.52449900   
   147       C          3.50699900      6.42187600     19.15972000   
   148       C         19.15972000      3.50699900      6.42187600   
   149       C         20.56300100     18.45687600     16.94528000   
   150       C         16.94528000     20.56300100     18.45687600   
   151       C          6.42187600     19.15972000      3.50699900   
   152       C         22.96278000     11.63062400     14.54550100   
   153       C         23.66562400     21.55949900      1.10722000   
   154       C          1.10722000     23.66562400     21.55949900   
   155       C         21.55949900      1.10722000     23.66562400   
   156       C         11.63062400     14.54550100     22.96278000   
   157       C         14.54550100     22.96278000     11.63062400   
   158       C          7.12472000      8.52800100     17.64812400   
   159       C          5.61312400      4.91028000     15.54199900   
   160       C         17.64812400      7.12472000      8.52800100   
   161       C         15.54199900      5.61312400      4.91028000   
   162       C          8.52800100     17.64812400      7.12472000   
   163       C          4.91028000     15.54199900      5.61312400   
   164       C          0.40437600      9.52449900     10.92778000   
   165       C          2.51050100     13.14222000     12.43937600   
   166       C         13.14222000     12.43937600      2.51050100   
   167       C          9.52449900     10.92778000      0.40437600   
   168       C         12.43937600      2.51050100     13.14222000   
   169       C         16.54812500     19.02011400     20.18991600   
   170       C         13.00261400     22.56562500      9.89758400   
   171       C          3.88008400      4.51312500     17.08488600   
   172       C         17.08488600      3.88008400      4.51312500   
   173       C         20.18991600     16.54812500     19.02011400   
   174       C         19.02011400     20.18991600     16.54812500   
   175       C          4.51312500     17.08488600      3.88008400   
   176       C          0.96761400     13.53937500     14.17241600   
   177       C          1.50437500     21.93258400     23.10238600   
   178       C         23.10238600      1.50437500     21.93258400   
   179       C         21.93258400     23.10238600      1.50437500   
   180       C         13.53937500     14.17241600      0.96761400   
   181       C         14.17241600      0.96761400     13.53937500   
   182       C          5.04988600      8.15491600     19.55687500   
   183       C          7.52187500      6.98511400     15.91508400   
   184       C         19.55687500      5.04988600      8.15491600   
   185       C         15.91508400      7.52187500      6.98511400   
   186       C          8.15491600     19.55687500      5.04988600   
   187       C          6.98511400     15.91508400      7.52187500   
   188       C         22.56562500      9.89758400     13.00261400   
   189       C          2.13741600     11.06738600     10.53062500   
   190       C         11.06738600     10.53062500      2.13741600   
   191       C          9.89758400     13.00261400     22.56562500   
   192       C         10.53062500      2.13741600     11.06738600   
   193       C         17.16672400     16.79123200     21.00829600   
   194       C         10.77373200     23.18422400      9.07920400   
   195       C          3.06170400      5.13172400     19.31376800   
   196       C         19.31376800      3.06170400      5.13172400   
   197       C         21.00829600     17.16672400     16.79123200   
   198       C         16.79123200     21.00829600     17.16672400   
   199       C          5.13172400     19.31376800      3.06170400   
   200       C         22.80873200     12.92077600     14.99079600   
   201       C          0.88577600     21.11420400      1.26126800   
   202       C          1.26126800      0.88577600     21.11420400   
   203       C         21.11420400      1.26126800      0.88577600   
   204       C         12.92077600     14.99079600     22.80873200   
   205       C         14.99079600     22.80873200     12.92077600   
   206       C          7.27876800      8.97329600     18.93827600   
   207       C          6.90327600      4.75623200     15.09670400   
   208       C         18.93827600      7.27876800      8.97329600   
   209       C         15.09670400      6.90327600      4.75623200   
   210       C          8.97329600     18.93827600      7.27876800   
   211       C          4.75623200     15.09670400      6.90327600   
   212       C         23.18422400      9.07920400     10.77373200   
   213       C          2.95579600     13.29626800     11.14922400   
   214       C         13.29626800     11.14922400      2.95579600   
   215       C          9.07920400     10.77373200     23.18422400   
   216       C         11.14922400      2.95579600     13.29626800   
   217       C         16.16300500     17.81420700     20.72908400   
   218       C         11.79670700     22.18050500      9.35841600   
   219       C          3.34091600      4.12800500     18.29079300   
   220       C         18.29079300      3.34091600      4.12800500   
   221       C         20.72908400     16.16300500     17.81420700   
   222       C         17.81420700     20.72908400     16.16300500   
   223       C          4.12800500     18.29079300      3.34091600   
   224       C         23.83170700     13.92449500     14.71158400   
   225       C          1.88949500     21.39341600      0.23829300   
   226       C          0.23829300      1.88949500     21.39341600   
   227       C         21.39341600      0.23829300      1.88949500   
   228       C         13.92449500     14.71158400     23.83170700   
   229       C         14.71158400     23.83170700     13.92449500   
   230       C          6.25579300      8.69408400     19.94199500   
   231       C          7.90699500      5.77920700     15.37591600   
   232       C         19.94199500      6.25579300      8.69408400   
   233       C         15.37591600      7.90699500      5.77920700   
   234       C          8.69408400     19.94199500      6.25579300   
   235       C          5.77920700     15.37591600      7.90699500   
   236       C         22.18050500      9.35841600     11.79670700   
   237       C          2.67658400     12.27329300     10.14550500   
   238       C         12.27329300     10.14550500      2.67658400   
   239       C          9.35841600     11.79670700     22.18050500   
   240       C         10.14550500      2.67658400     12.27329300   
   241       C         19.29932600     15.89101400     20.03346100   
   242       C          9.87351400      1.24682600     10.05403900   
   243       C          4.03653900      7.26432600     20.21398600   
   244       C         20.21398600      4.03653900      7.26432600   
   245       C         20.03346100     19.29932600     15.89101400   
   246       C         15.89101400     20.03346100     19.29932600   
   247       C          7.26432600     20.21398600      4.03653900   
   248       C         21.90851400     10.78817400     14.01596100   
   249       C         22.82317400     22.08903900      2.16148600   
   250       C          2.16148600     22.82317400     22.08903900   
   251       C         22.08903900      2.16148600     22.82317400   
   252       C         10.78817400     14.01596100     21.90851400   
   253       C         14.01596100     21.90851400     10.78817400   
   254       C          8.17898600      7.99846100     16.80567400   
   255       C          4.77067400      3.85601400     16.07153900   
   256       C         16.80567400      8.17898600      7.99846100   
   257       C         16.07153900      4.77067400      3.85601400   
   258       C          7.99846100     16.80567400      8.17898600   
   259       C          3.85601400     16.07153900      4.77067400   
   260       C          1.24682600     10.05403900      9.87351400   
   261       C          1.98096100     14.19648600     13.28182600   
   262       C         14.19648600     13.28182600      1.98096100   
   263       C         10.05403900      9.87351400      1.24682600   
   264       C         13.28182600      1.98096100     14.19648600   
   265       C         16.88029100     15.47701000     21.48728900   
   266       C          9.45951000     22.89779100      8.60021100   
   267       C          2.58271100      4.84529100     20.62799000   
   268       C         20.62799000      2.58271100      4.84529100   
   269       C         21.48728900     16.88029100     15.47701000   
   270       C         15.47701000     21.48728900     16.88029100   
   271       C          4.84529100     20.62799000      2.58271100   
   272       C         21.49451000     13.20720900     15.46978900   
   273       C          1.17220900     20.63521100      2.57549000   
   274       C          2.57549000      1.17220900     20.63521100   
   275       C         20.63521100      2.57549000      1.17220900   
   276       C         13.20720900     15.46978900     21.49451000   
   277       C         15.46978900     21.49451000     13.20720900   
   278       C          8.59299000      9.45228900     19.22470900   
   279       C          7.18970900      3.44201000     14.61771100   
   280       C         19.22470900      8.59299000      9.45228900   
   281       C         14.61771100      7.18970900      3.44201000   
   282       C          9.45228900     19.22470900      8.59299000   
   283       C          3.44201000     14.61771100      7.18970900   
   284       C         22.89779100      8.60021100      9.45951000   
   285       C          3.43478900     14.61049000     10.86279100   
   286       C         14.61049000     10.86279100      3.43478900   
   287       C          8.60021100      9.45951000     22.89779100   
   288       C         10.86279100      3.43478900     14.61049000   
   289       H         13.45031600     21.59801100     17.55184400   
   290       H         15.58051100     19.46781600     12.53565600   
   291       H          6.51815600      1.41531600     14.50698900   
   292       H         14.50698900      6.51815600      1.41531600   
   293       H         17.55184400     13.45031600     21.59801100   
   294       H         21.59801100     17.55184400     13.45031600   
   295       H          1.41531600     14.50698900      6.51815600   
   296       H          3.54551100     16.63718400     11.53434400   
   297       H          4.60218400      0.50065600     20.52448900   
   298       H         20.52448900      4.60218400      0.50065600   
   299       H          0.50065600     20.52448900      4.60218400   
   300       H         16.63718400     11.53434400      3.54551100   
   301       H         11.53434400      3.54551100     16.63718400   
   302       H          2.47198900      5.51684400     22.65468400   
   303       H         10.61968400      9.56301100     18.55315600   
   304       H         22.65468400      2.47198900      5.51684400   
   305       H         18.55315600     10.61968400      9.56301100   
   306       H          5.51684400     22.65468400      2.47198900   
   307       H          9.56301100     18.55315600     10.61968400   
   308       H         19.46781600     12.53565600     15.58051100   
   309       H         23.56934400      8.48948900      7.43281600   
   310       H          8.48948900      7.43281600     23.56934400   
   311       H         12.53565600     15.58051100     19.46781600   
   312       H          7.43281600     23.56934400      8.48948900   
   313       H         13.74878400     20.12733400     19.49910700   
   314       H         14.10983400     19.76628400     10.58839300   
   315       H          4.57089300      1.71378400     15.97766600   
   316       H         15.97766600      4.57089300      1.71378400   
   317       H         19.49910700     13.74878400     20.12733400   
   318       H         20.12733400     19.49910700     13.74878400   
   319       H          1.71378400     15.97766600      4.57089300   
   320       H          2.07483400     16.33871600     13.48160700   
   321       H          4.30371600     22.62339300     21.99516600   
   322       H         21.99516600      4.30371600     22.62339300   
   323       H         22.62339300     21.99516600      4.30371600   
   324       H         16.33871600     13.48160700      2.07483400   
   325       H         13.48160700      2.07483400     16.33871600   
   326       H          3.94266600      7.46410700     22.35621600   
   327       H         10.32121600      8.09233400     16.60589300   
   328       H         22.35621600      3.94266600      7.46410700   
   329       H         16.60589300     10.32121600      8.09233400   
   330       H          7.46410700     22.35621600      3.94266600   
   331       H          8.09233400     16.60589300     10.32121600   
   332       H         19.76628400     10.58839300     14.10983400   
   333       H          1.44660700      9.96016600      7.73128400   
   334       H          9.96016600      7.73128400      1.44660700   
   335       H         10.58839300     14.10983400     19.76628400   
   336       H          7.73128400      1.44660700      9.96016600   
   337       H         14.00392600     17.89845200     20.33674300   
   338       H         11.88095200     20.02142600      9.75075700   
   339       H          3.73325700      1.96892600     18.20654800   
   340       H         18.20654800      3.73325700      1.96892600   
   341       H         20.33674300     14.00392600     17.89845200   
   342       H         17.89845200     20.33674300     14.00392600   
   343       H          1.96892600     18.20654800      3.73325700   
   344       H         23.91595200     16.08357400     14.31924300   
   345       H          4.04857400     21.78575700      0.15404800   
   346       H          0.15404800      4.04857400     21.78575700   
   347       H         21.78575700      0.15404800      4.04857400   
   348       H         16.08357400     14.31924300     23.91595200   
   349       H         14.31924300     23.91595200     16.08357400   
   350       H          6.17154800      8.30174300     22.10107400   
   351       H         10.06607400      5.86345200     15.76825700   
   352       H         22.10107400      6.17154800      8.30174300   
   353       H         15.76825700     10.06607400      5.86345200   
   354       H          8.30174300     22.10107400      6.17154800   
   355       H          5.86345200     15.76825700     10.06607400   
   356       H         20.02142600      9.75075700     11.88095200   
   357       H          2.28424300     12.18904800      7.98642600   
   358       H         12.18904800      7.98642600      2.28424300   
   359       H          9.75075700     11.88095200     20.02142600   
   360       H          7.98642600      2.28424300     12.18904800   
   361      Tv         24.07000000      0.00000000      0.00000000   
   362      Tv          0.00000000     24.07000000      0.00000000   
   363      Tv          0.00000000      0.00000000     24.07000000   

                             CARTESIAN COORDINATES

   1    N       23.225143000    21.990352000    23.908731000
   2    N       15.972852000     5.172643000     6.178769000
   3    N        0.161269000    11.190143000    14.114648000
   4    N       14.114648000     0.161269000    11.190143000
   5    N       23.908731000    23.225143000    21.990352000
   6    N       21.990352000    23.908731000    23.225143000
   7    N       11.190143000    14.114648000     0.161269000
   8    N        3.937852000     6.862357000    17.891231000
   9    N       18.897357000    18.213769000    20.132148000
  10    N       20.132148000    18.897357000    18.213769000
  11    N       18.213769000    20.132148000    18.897357000
  12    N        6.862357000    17.891231000     3.937852000
  13    N       17.891231000     3.937852000     6.862357000
  14    N        2.079648000    11.873731000    12.879857000
  15    N        0.844857000     9.955352000    12.196269000
  16    N       12.879857000     2.079648000    11.873731000
  17    N       12.196269000     0.844857000     9.955352000
  18    N       11.873731000    12.879857000     2.079648000
  19    N        9.955352000    12.196269000     0.844857000
  20    N        5.172643000     6.178769000    15.972852000
  21    N        5.856231000     8.097148000    17.207643000
  22    N        8.097148000    17.207643000     5.856231000
  23    N        6.178769000    15.972852000     5.172643000
  24    N       17.207643000     5.856231000     8.097148000
  25    C       17.766067000    14.461256000    21.229740000
  26    C        8.443756000    23.783567000     8.857760000
  27    C        2.840260000     5.731067000    21.643744000
  28    C       21.643744000     2.840260000     5.731067000
  29    C       21.229740000    17.766067000    14.461256000
  30    C       14.461256000    21.229740000    17.766067000
  31    C        5.731067000    21.643744000     2.840260000
  32    C       20.478756000    12.321433000    15.212240000
  33    C        0.286433000    20.892760000     3.591244000
  34    C        3.591244000     0.286433000    20.892760000
  35    C       20.892760000     3.591244000     0.286433000
  36    C       12.321433000    15.212240000    20.478756000
  37    C       15.212240000    20.478756000    12.321433000
  38    C        9.608744000     9.194740000    18.338933000
  39    C        6.303933000     2.426256000    14.875260000
  40    C       18.338933000     9.608744000     9.194740000
  41    C       14.875260000     6.303933000     2.426256000
  42    C        9.194740000    18.338933000     9.608744000
  43    C        2.426256000    14.875260000     6.303933000
  44    C       23.783567000     8.857760000     8.443756000
  45    C        3.177240000    15.626244000    11.748567000
  46    C       15.626244000    11.748567000     3.177240000
  47    C        8.857760000     8.443756000    23.783567000
  48    C       11.748567000     3.177240000    15.626244000
  49    C       18.940683000    14.636967000    20.420988000
  50    C        8.619467000     0.888183000     9.666512000
  51    C        3.649012000     6.905683000    21.468033000
  52    C       21.468033000     3.649012000     6.905683000
  53    C       20.420988000    18.940683000    14.636967000
  54    C       14.636967000    20.420988000    18.940683000
  55    C        6.905683000    21.468033000     3.649012000
  56    C       20.654467000    11.146817000    14.403488000
  57    C       23.181817000    21.701512000     3.415533000
  58    C        3.415533000    23.181817000    21.701512000
  59    C       21.701512000     3.415533000    23.181817000
  60    C       11.146817000    14.403488000    20.654467000
  61    C       14.403488000    20.654467000    11.146817000
  62    C        9.433033000     8.385988000    17.164317000
  63    C        5.129317000     2.601967000    15.684012000
  64    C       17.164317000     9.433033000     8.385988000
  65    C       15.684012000     5.129317000     2.601967000
  66    C        8.385988000    17.164317000     9.433033000
  67    C        2.601967000    15.684012000     5.129317000
  68    C        0.888183000     9.666512000     8.619467000
  69    C        2.368488000    15.450533000    12.923183000
  70    C       15.450533000    12.923183000     2.368488000
  71    C        9.666512000     8.619467000     0.888183000
[...]
  293          H           0.157616        0.8424     0.84238
  294          H           0.169771        0.8302     0.83023
  295          H           0.167569        0.8324     0.83243
  296          H           0.159032        0.8410     0.84097
  297          H           0.155853        0.8441     0.84415
  298          H           0.159032        0.8410     0.84097
  299          H           0.167914        0.8321     0.83209
  300          H           0.155853        0.8441     0.84415
  301          H           0.167914        0.8321     0.83209
  302          H           0.169771        0.8302     0.83023
  303          H           0.167569        0.8324     0.83243
  304          H           0.167569        0.8324     0.83243
  305          H           0.157616        0.8424     0.84238
  306          H           0.157616        0.8424     0.84238
  307          H           0.169771        0.8302     0.83023
  308          H           0.155853        0.8441     0.84415
  309          H           0.167914        0.8321     0.83209
  310          H           0.159032        0.8410     0.84097
  311          H           0.167914        0.8321     0.83209
  312          H           0.155853        0.8441     0.84415
  313          H           0.160215        0.8398     0.83978
  314          H           0.157665        0.8423     0.84233
  315          H           0.169843        0.8302     0.83016
  316          H           0.167998        0.8320     0.83200
  317          H           0.169843        0.8302     0.83016
  318          H           0.167998        0.8320     0.83200
  319          H           0.160215        0.8398     0.83978
  320          H           0.157665        0.8423     0.84233
  321          H           0.167417        0.8326     0.83258
  322          H           0.157665        0.8423     0.84233
  323          H           0.165943        0.8341     0.83406
  324          H           0.167417        0.8326     0.83258
  325          H           0.165943        0.8341     0.83406
  326          H           0.167998        0.8320     0.83200
  327          H           0.160215        0.8398     0.83978
  328          H           0.160215        0.8398     0.83978
  329          H           0.169843        0.8302     0.83016
  330          H           0.169843        0.8302     0.83016
  331          H           0.167998        0.8320     0.83200
  332          H           0.167417        0.8326     0.83258
  333          H           0.165943        0.8341     0.83406
  334          H           0.157665        0.8423     0.84233
  335          H           0.165943        0.8341     0.83406
  336          H           0.167417        0.8326     0.83258
  337          H           0.154794        0.8452     0.84521
  338          H           0.155725        0.8443     0.84427
  339          H           0.181252        0.8187     0.81875
  340          H           0.171367        0.8286     0.82863
  341          H           0.181252        0.8187     0.81875
  342          H           0.171367        0.8286     0.82863
  343          H           0.154794        0.8452     0.84521
  344          H           0.155725        0.8443     0.84427
  345          H           0.181950        0.8181     0.81805
  346          H           0.155725        0.8443     0.84427
  347          H           0.157162        0.8428     0.84284
  348          H           0.181950        0.8181     0.81805
  349          H           0.157162        0.8428     0.84284
  350          H           0.171367        0.8286     0.82863
  351          H           0.154794        0.8452     0.84521
  352          H           0.154794        0.8452     0.84521
  353          H           0.181252        0.8187     0.81875
  354          H           0.181252        0.8187     0.81875
  355          H           0.171367        0.8286     0.82863
  356          H           0.181950        0.8181     0.81805
  357          H           0.157162        0.8428     0.84284
  358          H           0.155725        0.8443     0.84427
  359          H           0.157162        0.8428     0.84284
  360          H           0.181950        0.8181     0.81805


          ATOMIC ORBITAL ELECTRON POPULATIONS

     Atom    s        px        py        pz   
    1  N   1.53449   1.20120   1.40016   1.13010
    2  N   1.53684   1.41410   1.20134   1.14128
    3  N   1.52310   1.13529   1.15863   1.34337
    4  N   1.53210   1.40477   1.12422   1.19338
    5  N   1.52310   1.13529   1.15863   1.34337
    6  N   1.53210   1.40477   1.12422   1.19338
    7  N   1.53449   1.20120   1.40016   1.13010
    8  N   1.53684   1.41410   1.20134   1.14128
    9  N   1.52180   1.15413   1.13235   1.33153
   10  N   1.53684   1.41410   1.20134   1.14128
   11  N   1.53162   1.12050   1.37932   1.19482
   12  N   1.52180   1.15413   1.13235   1.33153
   13  N   1.53162   1.12050   1.37932   1.19482
   14  N   1.53210   1.40477   1.12422   1.19338
   15  N   1.53449   1.20120   1.40016   1.13010
   16  N   1.53449   1.20120   1.40016   1.13010
   17  N   1.52310   1.13529   1.15863   1.34337
   18  N   1.52310   1.13529   1.15863   1.34337
   19  N   1.53210   1.40477   1.12422   1.19338
   20  N   1.52180   1.15413   1.13235   1.33153
   21  N   1.53162   1.12050   1.37932   1.19482
   22  N   1.53684   1.41410   1.20134   1.14128
   23  N   1.53162   1.12050   1.37932   1.19482
   24  N   1.52180   1.15413   1.13235   1.33153
   25  C   1.08849   0.96395   1.06486   0.96513
   26  C   1.08788   1.06502   0.96469   0.96849
   27  C   1.08008   1.06133   1.00787   1.08661
   28  C   1.07694   1.08513   1.07565   1.01274
   29  C   1.08008   1.06133   1.00787   1.08661
   30  C   1.07694   1.08513   1.07565   1.01274
   31  C   1.08849   0.96395   1.06486   0.96513
   32  C   1.08788   1.06502   0.96469   0.96849
   33  C   1.07978   1.00951   1.06294   1.08511
   34  C   1.08788   1.06502   0.96469   0.96849
   35  C   1.07747   1.05290   1.07464   1.00179
   36  C   1.07978   1.00951   1.06294   1.08511
   37  C   1.07747   1.05290   1.07464   1.00179
   38  C   1.07694   1.08513   1.07565   1.01274
   39  C   1.08849   0.96395   1.06486   0.96513
   40  C   1.08849   0.96395   1.06486   0.96513
   41  C   1.08008   1.06133   1.00787   1.08661
   42  C   1.08008   1.06133   1.00787   1.08661
   43  C   1.07694   1.08513   1.07565   1.01274
   44  C   1.07978   1.00951   1.06294   1.08511
   45  C   1.07747   1.05290   1.07464   1.00179
   46  C   1.08788   1.06502   0.96469   0.96849
   47  C   1.07747   1.05290   1.07464   1.00179
   48  C   1.07978   1.00951   1.06294   1.08511
   49  C   1.07269   1.03498   1.04377   1.05547
   50  C   1.07224   1.04228   1.03463   1.05573
   51  C   1.08865   0.94393   0.97514   1.03544
   52  C   1.08793   1.03060   0.94148   0.97177
   53  C   1.08865   0.94393   0.97514   1.03544
   54  C   1.08793   1.03060   0.94148   0.97177
   55  C   1.07269   1.03498   1.04377   1.05547
   56  C   1.07224   1.04228   1.03463   1.05573
   57  C   1.08922   0.97257   0.94026   1.03671
   58  C   1.07224   1.04228   1.03463   1.05573
   59  C   1.08118   0.98094   1.03278   0.99258
   60  C   1.08922   0.97257   0.94026   1.03671
   61  C   1.08118   0.98094   1.03278   0.99258
   62  C   1.08793   1.03060   0.94148   0.97177
   63  C   1.07269   1.03498   1.04377   1.05547
   64  C   1.07269   1.03498   1.04377   1.05547
   65  C   1.08865   0.94393   0.97514   1.03544
   66  C   1.08865   0.94393   0.97514   1.03544
   67  C   1.08793   1.03060   0.94148   0.97177
   68  C   1.08922   0.97257   0.94026   1.03671
   69  C   1.08118   0.98094   1.03278   0.99258
   70  C   1.07224   1.04228   1.03463   1.05573
   71  C   1.08118   0.98094   1.03278   0.99258
   72  C   1.08922   0.97257   0.94026   1.03671
   73  C   1.09128   1.00743   0.98348   0.89782
   74  C   1.09228   0.97964   1.00829   0.88782
   75  C   1.06825   1.18063   1.02753   1.05438
   76  C   1.06900   1.04421   1.13553   1.01858
   77  C   1.06825   1.18063   1.02753   1.05438
   78  C   1.06900   1.04421   1.13553   1.01858
   79  C   1.09128   1.00743   0.98348   0.89782
   80  C   1.09228   0.97964   1.00829   0.88782
   81  C   1.07032   1.02774   1.16257   1.04925
   82  C   1.09228   0.97964   1.00829   0.88782
   83  C   1.08067   0.99759   1.00863   1.01237
   84  C   1.07032   1.02774   1.16257   1.04925
   85  C   1.08067   0.99759   1.00863   1.01237
   86  C   1.06900   1.04421   1.13553   1.01858
   87  C   1.09128   1.00743   0.98348   0.89782
   88  C   1.09128   1.00743   0.98348   0.89782
   89  C   1.06825   1.18063   1.02753   1.05438
   90  C   1.06825   1.18063   1.02753   1.05438
   91  C   1.06900   1.04421   1.13553   1.01858
   92  C   1.07032   1.02774   1.16257   1.04925
   93  C   1.08067   0.99759   1.00863   1.01237
   94  C   1.09228   0.97964   1.00829   0.88782
   95  C   1.08067   0.99759   1.00863   1.01237
   96  C   1.07032   1.02774   1.16257   1.04925
   97  C   1.07753   0.94577   0.87348   0.92513
   98  C   1.07876   0.86402   0.94454   0.91806
   99  C   1.04890   1.03785   0.97336   1.14807
  100  C   1.05537   1.08486   1.00522   0.96221
  101  C   1.04890   1.03785   0.97336   1.14807
  102  C   1.05537   1.08486   1.00522   0.96221
  103  C   1.07753   0.94577   0.87348   0.92513
  104  C   1.07876   0.86402   0.94454   0.91806
  105  C   1.05199   0.97500   1.03133   1.12513
  106  C   1.07876   0.86402   0.94454   0.91806
  107  C   1.07148   0.94418   0.93946   0.95246
  108  C   1.05199   0.97500   1.03133   1.12513
  109  C   1.07148   0.94418   0.93947   0.95246
  110  C   1.05537   1.08486   1.00522   0.96221
  111  C   1.07753   0.94577   0.87348   0.92513
  112  C   1.07753   0.94577   0.87348   0.92513
  113  C   1.04890   1.03785   0.97336   1.14807
  114  C   1.04890   1.03785   0.97336   1.14807
  115  C   1.05537   1.08486   1.00522   0.96221
  116  C   1.05199   0.97500   1.03133   1.12513
  117  C   1.07148   0.94418   0.93947   0.95246
  118  C   1.07876   0.86402   0.94454   0.91806
  119  C   1.07148   0.94418   0.93946   0.95246
  120  C   1.05199   0.97500   1.03133   1.12513
  121  C   1.07636   0.82874   0.91214   0.87961
  122  C   1.06535   0.98643   0.86079   0.89376
  123  C   1.04119   0.91938   0.95524   1.13795
  124  C   1.06426   1.01080   0.87731   0.79206
  125  C   1.04119   0.91938   0.95524   1.13795
  126  C   1.06426   1.01080   0.87731   0.79206
  127  C   1.07636   0.82874   0.91214   0.87961
  128  C   1.06535   0.98643   0.86079   0.89376
  129  C   1.04679   0.92058   0.90744   1.10759
  130  C   1.06535   0.98643   0.86079   0.89376
  131  C   1.06501   0.87536   0.99476   0.80166
  132  C   1.04679   0.92058   0.90744   1.10759
  133  C   1.06501   0.87536   0.99476   0.80166
  134  C   1.06426   1.01080   0.87731   0.79206
  135  C   1.07636   0.82874   0.91214   0.87961
  136  C   1.07636   0.82874   0.91214   0.87961
  137  C   1.04119   0.91938   0.95524   1.13795
  138  C   1.04119   0.91938   0.95524   1.13795
  139  C   1.06426   1.01080   0.87731   0.79206
  140  C   1.04679   0.92058   0.90744   1.10759
  141  C   1.06501   0.87536   0.99476   0.80166
  142  C   1.06535   0.98643   0.86079   0.89376
  143  C   1.06501   0.87536   0.99476   0.80166
  144  C   1.04679   0.92058   0.90744   1.10759
  145  C   1.06660   1.00907   0.82416   1.08738
  146  C   1.06598   0.82194   1.00862   1.08708
  147  C   1.07649   0.98380   0.96256   0.80998
  148  C   1.07669   0.81414   0.98381   0.96022
  149  C   1.07649   0.98380   0.96256   0.80998
  150  C   1.07669   0.81414   0.98381   0.96022
  151  C   1.06660   1.00907   0.82416   1.08738
  152  C   1.06598   0.82194   1.00862   1.08708
  153  C   1.07573   0.95838   0.98483   0.81594
  154  C   1.06598   0.82194   1.00862   1.08708
  155  C   1.07425   0.99931   0.81733   0.96740
  156  C   1.07573   0.95838   0.98483   0.81594
  157  C   1.07425   0.99931   0.81733   0.96740
  158  C   1.07669   0.81414   0.98381   0.96022
  159  C   1.06660   1.00907   0.82416   1.08738
  160  C   1.06660   1.00907   0.82416   1.08738
  161  C   1.07649   0.98380   0.96256   0.80998
  162  C   1.07649   0.98380   0.96256   0.80998
  163  C   1.07669   0.81414   0.98381   0.96022
  164  C   1.07573   0.95838   0.98483   0.81594
  165  C   1.07425   0.99931   0.81733   0.96740
  166  C   1.06598   0.82194   1.00862   1.08708
  167  C   1.07425   0.99931   0.81733   0.96740
  168  C   1.07573   0.95838   0.98483   0.81594
  169  C   1.07754   0.92208   0.92231   0.91265
  170  C   1.07351   0.93596   0.92035   0.94800
  171  C   1.05119   1.17319   0.92023   1.04571
  172  C   1.05524   1.01795   1.13227   0.91495
  173  C   1.05119   1.17319   0.92023   1.04571
  174  C   1.05524   1.01795   1.13227   0.91495
  175  C   1.07754   0.92208   0.92231   0.91265
  176  C   1.07351   0.93596   0.92035   0.94800
  177  C   1.05482   0.92383   1.15258   1.03977
  178  C   1.07351   0.93596   0.92035   0.94800
  179  C   1.06184   1.05384   0.97711   0.92027
  180  C   1.05482   0.92383   1.15258   1.03977
  181  C   1.06184   1.05384   0.97711   0.92027
  182  C   1.05524   1.01795   1.13227   0.91495
  183  C   1.07754   0.92208   0.92231   0.91265
  184  C   1.07754   0.92208   0.92231   0.91265
  185  C   1.05119   1.17319   0.92023   1.04571
  186  C   1.05119   1.17319   0.92023   1.04571
  187  C   1.05524   1.01795   1.13227   0.91495
  188  C   1.05482   0.92383   1.15258   1.03977
  189  C   1.06184   1.05384   0.97711   0.92027
  190  C   1.07351   0.93596   0.92035   0.94800
  191  C   1.06184   1.05384   0.97711   0.92027
  192  C   1.05482   0.92383   1.15258   1.03977
  193  C   1.06559   0.94106   0.97833   0.92272
  194  C   1.06538   0.97847   0.94123   0.92739
  195  C   1.05755   1.11703   0.96373   1.02756
  196  C   1.06101   1.02288   1.07094   0.96129
  197  C   1.05755   1.11703   0.96373   1.02756
  198  C   1.06101   1.02288   1.07094   0.96129
  199  C   1.06559   0.94106   0.97833   0.92272
  200  C   1.06538   0.97847   0.94123   0.92739
  201  C   1.05621   0.96743   1.12147   1.02517
  202  C   1.06538   0.97847   0.94123   0.92739
  203  C   1.06087   1.01345   1.00185   0.95524
  204  C   1.05621   0.96743   1.12147   1.02517
  205  C   1.06087   1.01345   1.00185   0.95524
  206  C   1.06101   1.02288   1.07094   0.96129
  207  C   1.06559   0.94106   0.97833   0.92272
  208  C   1.06559   0.94106   0.97833   0.92272
  209  C   1.05755   1.11703   0.96373   1.02756
  210  C   1.05755   1.11703   0.96373   1.02756
  211  C   1.06101   1.02288   1.07094   0.96129
  212  C   1.05621   0.96743   1.12147   1.02517
  213  C   1.06087   1.01345   1.00185   0.95524
  214  C   1.06538   0.97847   0.94123   0.92739
  215  C   1.06087   1.01345   1.00185   0.95524
  216  C   1.05621   0.96743   1.12147   1.02517
  217  C   1.03151   0.97891   0.98101   1.25353
  218  C   1.03117   0.98313   0.97516   1.24907
  219  C   1.08056   0.79638   0.96871   0.91078
  220  C   1.06677   0.92131   0.91541   0.97720
  221  C   1.08056   0.79638   0.96871   0.91078
  222  C   1.06677   0.92131   0.91541   0.97720
  223  C   1.03151   0.97891   0.98101   1.25353
  224  C   1.03117   0.98313   0.97516   1.24907
  225  C   1.08034   0.96918   0.80503   0.91346
  226  C   1.03117   0.98313   0.97516   1.24907
  227  C   1.04487   1.10381   0.95254   0.97596
  228  C   1.08034   0.96918   0.80503   0.91346
  229  C   1.04487   1.10381   0.95254   0.97596
  230  C   1.06677   0.92131   0.91541   0.97720
  231  C   1.03151   0.97891   0.98101   1.25353
  232  C   1.03151   0.97891   0.98101   1.25353
  233  C   1.08056   0.79638   0.96871   0.91078
  234  C   1.08056   0.79638   0.96871   0.91078
  235  C   1.06677   0.92131   0.91541   0.97720
  236  C   1.08034   0.96918   0.80503   0.91346
  237  C   1.04487   1.10381   0.95254   0.97596
  238  C   1.03117   0.98313   0.97516   1.24907
  239  C   1.04487   1.10381   0.95254   0.97596
  240  C   1.08034   0.96918   0.80503   0.91346
  241  C   1.06405   0.95146   0.96658   0.95449
  242  C   1.06270   0.96902   0.95603   0.96093
  243  C   1.05691   1.01959   1.01271   0.97060
  244  C   1.05739   0.97450   1.05079   1.04282
  245  C   1.05691   1.01959   1.01271   0.97060
  246  C   1.05739   0.97450   1.05079   1.04282
  247  C   1.06405   0.95146   0.96658   0.95449
  248  C   1.06270   0.96902   0.95603   0.96093
  249  C   1.06068   1.01873   1.02239   0.96920
  250  C   1.06270   0.96902   0.95603   0.96093
  251  C   1.05728   1.03880   0.97394   1.02766
  252  C   1.06068   1.01873   1.02239   0.96920
  253  C   1.05728   1.03880   0.97394   1.02766
  254  C   1.05739   0.97450   1.05079   1.04282
  255  C   1.06405   0.95146   0.96658   0.95449
  256  C   1.06405   0.95146   0.96658   0.95449
  257  C   1.05691   1.01959   1.01271   0.97060
  258  C   1.05691   1.01959   1.01271   0.97060
  259  C   1.05739   0.97450   1.05079   1.04282
  260  C   1.06068   1.01873   1.02239   0.96920
  261  C   1.05728   1.03880   0.97394   1.02766
  262  C   1.06270   0.96902   0.95603   0.96093
  263  C   1.05728   1.03880   0.97394   1.02766
  264  C   1.06068   1.01873   1.02239   0.96920
  265  C   1.05698   0.99576   0.98230   1.07388
  266  C   1.05724   0.98259   0.99434   1.07379
  267  C   1.06845   0.90771   0.95611   0.93773
  268  C   1.06869   0.94130   0.92543   0.96048
  269  C   1.06845   0.90771   0.95611   0.93773
  270  C   1.06869   0.94130   0.92543   0.96048
  271  C   1.05698   0.99576   0.98230   1.07388
  272  C   1.05724   0.98259   0.99434   1.07379
  273  C   1.06783   0.95505   0.91217   0.94196
  274  C   1.05724   0.98259   0.99434   1.07379
  275  C   1.06273   0.99791   0.96392   0.97449
  276  C   1.06783   0.95505   0.91217   0.94196
  277  C   1.06273   0.99791   0.96392   0.97449
  278  C   1.06869   0.94130   0.92543   0.96048
  279  C   1.05698   0.99576   0.98230   1.07388
  280  C   1.05698   0.99576   0.98230   1.07388
  281  C   1.06845   0.90771   0.95611   0.93773
  282  C   1.06845   0.90771   0.95611   0.93773
  283  C   1.06869   0.94130   0.92543   0.96048
  284  C   1.06783   0.95505   0.91217   0.94196
  285  C   1.06273   0.99791   0.96392   0.97449
  286  C   1.05724   0.98259   0.99434   1.07379
  287  C   1.06273   0.99791   0.96392   0.97449
  288  C   1.06783   0.95505   0.91217   0.94196
  289  H   0.83243
  290  H   0.84097
  291  H   0.84238
  292  H   0.83023
  293  H   0.84238
  294  H   0.83023
  295  H   0.83243
  296  H   0.84097
  297  H   0.84415
  298  H   0.84097
  299  H   0.83209
  300  H   0.84415
  301  H   0.83209
  302  H   0.83023
  303  H   0.83243
  304  H   0.83243
  305  H   0.84238
  306  H   0.84238
  307  H   0.83023
  308  H   0.84415
  309  H   0.83209
  310  H   0.84097
  311  H   0.83209
  312  H   0.84415
  313  H   0.83978
  314  H   0.84233
  315  H   0.83016
  316  H   0.83200
  317  H   0.83016
  318  H   0.83200
  319  H   0.83978
  320  H   0.84233
  321  H   0.83258
  322  H   0.84233
  323  H   0.83406
  324  H   0.83258
  325  H   0.83406
  326  H   0.83200
  327  H   0.83978
  328  H   0.83978
  329  H   0.83016
  330  H   0.83016
  331  H   0.83200
  332  H   0.83258
  333  H   0.83406
  334  H   0.84233
  335  H   0.83406
  336  H   0.83258
  337  H   0.84521
  338  H   0.84427
  339  H   0.81875
  340  H   0.82863
  341  H   0.81875
  342  H   0.82863
  343  H   0.84521
  344  H   0.84427
  345  H   0.81805
  346  H   0.84427
  347  H   0.84284
  348  H   0.81805
  349  H   0.84284
  350  H   0.82863
  351  H   0.84521
  352  H   0.84521
  353  H   0.81875
  354  H   0.81875
  355  H   0.82863
  356  H   0.81805
  357  H   0.84284
  358  H   0.84427
  359  H   0.84284
  360  H   0.81805

 **********************
 *                    *
 * JOB ENDED NORMALLY *
 *                    *
 **********************



 TOTAL JOB TIME:           728.57 SECONDS

 == MOPAC DONE ==
