 *******************************************************************************
 **                                                                           **
 **                              MOPAC v22.1.0                                **
 **                                                                           **
 *******************************************************************************
 **          Digital Object Identifier (DOI): 10.5281/zenodo.6511958          **
 **    Visit the DOI location for information on how to cite this program.    **
 *******************************************************************************

                              PM7 CALCULATION RESULTS

 *******************************************************************************
 *  CALCULATION DONE:                                Wed Jan 31 14:31:16 2024  *
 *  PM7        - The PM7 Hamiltonian to be used
 *  NOOPT      - DO NOT OPTIMIZE ANY COORDINATES
 *
 *
 *
 *                 CHARGE ON SYSTEM = 0
 *
 *
 *
 *  T=         - A TIME OF 172800.0 SECONDS REQUESTED
 *  DUMP=N     - RESTART FILE WRITTEN EVERY 7200.0 SECONDS REQUESTED
 *******************************************************************************
PM7 CHARGE=0 NOOPT


   ATOM   CHEMICAL          X               Y               Z
  NUMBER   SYMBOL      (ANGSTROMS)     (ANGSTROMS)     (ANGSTROMS)

     1       N         16.54812500     19.02011400     20.18991600   
     2       N         13.00261400     22.56562500      9.89758400   
     3       N          3.88008400      4.51312500     17.08488600   
     4       N         17.08488600      3.88008400      4.51312500   
     5       N         20.18991600     16.54812500     19.02011400   
     6       N         19.02011400     20.18991600     16.54812500   
     7       N          4.51312500     17.08488600      3.88008400   
     8       N          0.96761400     13.53937500     14.17241600   
     9       N          1.50437500     21.93258400     23.10238600   
    10       N         23.10238600      1.50437500     21.93258400   
    11       N         21.93258400     23.10238600      1.50437500   
    12       N         13.53937500     14.17241600      0.96761400   
    13       N         14.17241600      0.96761400     13.53937500   
    14       N          5.04988600      8.15491600     19.55687500   
    15       N          7.52187500      6.98511400     15.91508400   
    16       N         19.55687500      5.04988600      8.15491600   
    17       N         15.91508400      7.52187500      6.98511400   
    18       N          8.15491600     19.55687500      5.04988600   
    19       N          6.98511400     15.91508400      7.52187500   
    20       N         22.56562500      9.89758400     13.00261400   
    21       N          2.13741600     11.06738600     10.53062500   
    22       N         11.06738600     10.53062500      2.13741600   
    23       N          9.89758400     13.00261400     22.56562500   
    24       N         10.53062500      2.13741600     11.06738600   
    25       C         17.76606700     14.46125600     21.22974000   
    26       C          8.44375600     23.78356700      8.85776000   
    27       C          2.84026000      5.73106700     21.64374400   
    28       C         21.64374400      2.84026000      5.73106700   
    29       C         21.22974000     17.76606700     14.46125600   
    30       C         14.46125600     21.22974000     17.76606700   
    31       C          5.73106700     21.64374400      2.84026000   
    32       C         20.47875600     12.32143300     15.21224000   
    33       C          0.28643300     20.89276000      3.59124400   
    34       C          3.59124400      0.28643300     20.89276000   
    35       C         20.89276000      3.59124400      0.28643300   
    36       C         12.32143300     15.21224000     20.47875600   
    37       C         15.21224000     20.47875600     12.32143300   
    38       C          9.60874400      9.19474000     18.33893300   
    39       C          6.30393300      2.42625600     14.87526000   
    40       C         18.33893300      9.60874400      9.19474000   
    41       C         14.87526000      6.30393300      2.42625600   
    42       C          9.19474000     18.33893300      9.60874400   
    43       C          2.42625600     14.87526000      6.30393300   
    44       C         23.78356700      8.85776000      8.44375600   
    45       C          3.17724000     15.62624400     11.74856700   
    46       C         15.62624400     11.74856700      3.17724000   
    47       C          8.85776000      8.44375600     23.78356700   
    48       C         11.74856700      3.17724000     15.62624400   
    49       C         18.94068300     14.63696700     20.42098800   
    50       C          8.61946700      0.88818300      9.66651200   
    51       C          3.64901200      6.90568300     21.46803300   
    52       C         21.46803300      3.64901200      6.90568300   
    53       C         20.42098800     18.94068300     14.63696700   
    54       C         14.63696700     20.42098800     18.94068300   
    55       C          6.90568300     21.46803300      3.64901200   
    56       C         20.65446700     11.14681700     14.40348800   
    57       C         23.18181700     21.70151200      3.41553300   
    58       C          3.41553300     23.18181700     21.70151200   
    59       C         21.70151200      3.41553300     23.18181700   
    60       C         11.14681700     14.40348800     20.65446700   
    61       C         14.40348800     20.65446700     11.14681700   
    62       C          9.43303300      8.38598800     17.16431700   
    63       C          5.12931700      2.60196700     15.68401200   
    64       C         17.16431700      9.43303300      8.38598800   
    65       C         15.68401200      5.12931700      2.60196700   
    66       C          8.38598800     17.16431700      9.43303300   
    67       C          2.60196700     15.68401200      5.12931700   
    68       C          0.88818300      9.66651200      8.61946700   
    69       C          2.36848800     15.45053300     12.92318300   
    70       C         15.45053300     12.92318300      2.36848800   
    71       C          9.66651200      8.61946700      0.88818300   
    72       C         12.92318300      2.36848800     15.45053300   
    73       C         14.79342200     17.30392300     20.81332900   
    74       C         11.28642300     20.81092200      9.27417100   
    75       C          3.25667100      2.75842200     18.80107700   
    76       C         18.80107700      3.25667100      2.75842200   
    77       C         20.81332900     14.79342200     17.30392300   
    78       C         17.30392300     20.81332900     14.79342200   
    79       C          2.75842200     18.80107700      3.25667100   
    80       C         23.32142300     15.29407800     14.79582900   
    81       C          3.25907800     21.30917100      0.74857700   
    82       C          0.74857700      3.25907800     21.30917100   
    83       C         21.30917100      0.74857700      3.25907800   
    84       C         15.29407800     14.79582900     23.32142300   
    85       C         14.79582900     23.32142300     15.29407800   
    86       C          6.76607700      8.77832900     21.31157800   
    87       C          9.27657800      5.26892300     15.29167100   
    88       C         21.31157800      6.76607700      8.77832900   
    89       C         15.29167100      9.27657800      5.26892300   
    90       C          8.77832900     21.31157800      6.76607700   
    91       C          5.26892300     15.29167100      9.27657800   
    92       C         20.81092200      9.27417100     11.28642300   
    93       C          2.76082900     12.78357700      8.77592200   
    94       C         12.78357700      8.77592200      2.76082900   
    95       C          9.27417100     11.28642300     20.81092200   
    96       C          8.77592200      2.76082900     12.78357700   
    97       C         15.55884800     15.38313700     22.14199300   
    98       C          9.36563700     21.57634800      7.94550700   
    99       C          1.92800700      3.52384800     20.72186300   
   100       C         20.72186300      1.92800700      3.52384800   
   101       C         22.14199300     15.55884800     15.38313700   
   102       C         15.38313700     22.14199300     15.55884800   
   103       C          3.52384800     20.72186300      1.92800700   
   104       C         21.40063700     14.52865200     16.12449300   
   105       C          2.49365200     19.98050700      2.66936300   
   106       C          2.66936300      2.49365200     19.98050700   
   107       C         19.98050700      2.66936300      2.49365200   
   108       C         14.52865200     16.12449300     21.40063700   
   109       C         16.12449300     21.40063700     14.52865200   
   110       C          8.68686300     10.10699300     20.54615200   
   111       C          8.51115200      3.34813700     13.96300700   
   112       C         20.54615200      8.68686300     10.10699300   
   113       C         13.96300700      8.51115200      3.34813700   
   114       C         10.10699300     20.54615200      8.68686300   
   115       C          3.34813700     13.96300700      8.51115200   
   116       C         21.57634800      7.94550700      9.36563700   
   117       C          4.08949300     14.70436300      9.54134800   
   118       C         14.70436300      9.54134800      4.08949300   
   119       C          7.94550700      9.36563700     21.57634800   
   120       C          9.54134800      4.08949300     14.70436300   
   121       C         19.21748800     19.98050700     17.98510400   
   122       C         13.96300700      1.16498800     12.10239600   
   123       C          6.08489600      7.18248800     16.12449300   
   124       C         16.12449300      6.08489600      7.18248800   
   125       C         17.98510400     19.21748800     19.98050700   
   126       C         19.98050700     17.98510400     19.21748800   
   127       C          7.18248800     16.12449300      6.08489600   
   128       C          1.92800700     10.87001200     11.96760400   
   129       C         22.90501200      0.06739600     22.14199300   
   130       C         22.14199300     22.90501200      0.06739600   
   131       C          0.06739600     22.14199300     22.90501200   
   132       C         10.87001200     11.96760400      1.92800700   
   133       C         11.96760400      1.92800700     10.87001200   
   134       C          4.08949300      5.95010400     16.88751200   
   135       C          4.85251200      7.94550700     18.11989600   
   136       C         16.88751200      4.08949300      5.95010400   
   137       C         18.11989600      4.85251200      7.94550700   
   138       C          5.95010400     16.88751200      4.08949300   
   139       C          7.94550700     18.11989600      4.85251200   
   140       C          1.16498800     12.10239600     13.96300700   
   141       C         24.00260400     10.10699300     13.19998800   
   142       C         10.10699300     13.19998800     24.00260400   
   143       C         12.10239600     13.96300700      1.16498800   
   144       C         13.19998800     24.00260400     10.10699300   
   145       C         18.45687600     16.94528000     20.56300100   
   146       C         10.92778000      0.40437600      9.52449900   
   147       C          3.50699900      6.42187600     19.15972000   
   148       C         19.15972000      3.50699900      6.42187600   
   149       C         20.56300100     18.45687600     16.94528000   
   150       C         16.94528000     20.56300100     18.45687600   
   151       C          6.42187600     19.15972000      3.50699900   
   152       C         22.96278000     11.63062400     14.54550100   
   153       C         23.66562400     21.55949900      1.10722000   
   154       C          1.10722000     23.66562400     21.55949900   
   155       C         21.55949900      1.10722000     23.66562400   
   156       C         11.63062400     14.54550100     22.96278000   
   157       C         14.54550100     22.96278000     11.63062400   
   158       C          7.12472000      8.52800100     17.64812400   
   159       C          5.61312400      4.91028000     15.54199900   
   160       C         17.64812400      7.12472000      8.52800100   
   161       C         15.54199900      5.61312400      4.91028000   
   162       C          8.52800100     17.64812400      7.12472000   
   163       C          4.91028000     15.54199900      5.61312400   
   164       C          0.40437600      9.52449900     10.92778000   
   165       C          2.51050100     13.14222000     12.43937600   
   166       C         13.14222000     12.43937600      2.51050100   
   167       C          9.52449900     10.92778000      0.40437600   
   168       C         12.43937600      2.51050100     13.14222000   
   169       C         23.22514300     21.99035200     23.90873100   
   170       C         15.97285200      5.17264300      6.17876900   
   171       C          0.16126900     11.19014300     14.11464800   
   172       C         14.11464800      0.16126900     11.19014300   
   173       C         23.90873100     23.22514300     21.99035200   
   174       C         21.99035200     23.90873100     23.22514300   
   175       C         11.19014300     14.11464800      0.16126900   
   176       C          3.93785200      6.86235700     17.89123100   
   177       C         18.89735700     18.21376900     20.13214800   
   178       C         20.13214800     18.89735700     18.21376900   
   179       C         18.21376900     20.13214800     18.89735700   
   180       C          6.86235700     17.89123100      3.93785200   
   181       C         17.89123100      3.93785200      6.86235700   
   182       C          2.07964800     11.87373100     12.87985700   
   183       C          0.84485700      9.95535200     12.19626900   
   184       C         12.87985700      2.07964800     11.87373100   
   185       C         12.19626900      0.84485700      9.95535200   
   186       C         11.87373100     12.87985700      2.07964800   
   187       C          9.95535200     12.19626900      0.84485700   
   188       C          5.17264300      6.17876900     15.97285200   
   189       C          5.85623100      8.09714800     17.20764300   
   190       C          8.09714800     17.20764300      5.85623100   
   191       C          6.17876900     15.97285200      5.17264300   
   192       C         17.20764300      5.85623100      8.09714800   
   193       C         17.16672400     16.79123200     21.00829600   
   194       C         10.77373200     23.18422400      9.07920400   
   195       C          3.06170400      5.13172400     19.31376800   
   196       C         19.31376800      3.06170400      5.13172400   
   197       C         21.00829600     17.16672400     16.79123200   
   198       C         16.79123200     21.00829600     17.16672400   
   199       C          5.13172400     19.31376800      3.06170400   
   200       C         22.80873200     12.92077600     14.99079600   
   201       C          0.88577600     21.11420400      1.26126800   
   202       C          1.26126800      0.88577600     21.11420400   
   203       C         21.11420400      1.26126800      0.88577600   
   204       C         12.92077600     14.99079600     22.80873200   
   205       C         14.99079600     22.80873200     12.92077600   
   206       C          7.27876800      8.97329600     18.93827600   
   207       C          6.90327600      4.75623200     15.09670400   
   208       C         18.93827600      7.27876800      8.97329600   
   209       C         15.09670400      6.90327600      4.75623200   
   210       C          8.97329600     18.93827600      7.27876800   
   211       C          4.75623200     15.09670400      6.90327600   
   212       C         23.18422400      9.07920400     10.77373200   
   213       C          2.95579600     13.29626800     11.14922400   
   214       C         13.29626800     11.14922400      2.95579600   
   215       C          9.07920400     10.77373200     23.18422400   
   216       C         11.14922400      2.95579600     13.29626800   
   217       C         16.16300500     17.81420700     20.72908400   
   218       C         11.79670700     22.18050500      9.35841600   
   219       C          3.34091600      4.12800500     18.29079300   
   220       C         18.29079300      3.34091600      4.12800500   
   221       C         20.72908400     16.16300500     17.81420700   
   222       C         17.81420700     20.72908400     16.16300500   
   223       C          4.12800500     18.29079300      3.34091600   
   224       C         23.83170700     13.92449500     14.71158400   
   225       C          1.88949500     21.39341600      0.23829300   
   226       C          0.23829300      1.88949500     21.39341600   
   227       C         21.39341600      0.23829300      1.88949500   
   228       C         13.92449500     14.71158400     23.83170700   
   229       C         14.71158400     23.83170700     13.92449500   
   230       C          6.25579300      8.69408400     19.94199500   
   231       C          7.90699500      5.77920700     15.37591600   
   232       C         19.94199500      6.25579300      8.69408400   
   233       C         15.37591600      7.90699500      5.77920700   
   234       C          8.69408400     19.94199500      6.25579300   
   235       C          5.77920700     15.37591600      7.90699500   
   236       C         22.18050500      9.35841600     11.79670700   
   237       C          2.67658400     12.27329300     10.14550500   
   238       C         12.27329300     10.14550500      2.67658400   
   239       C          9.35841600     11.79670700     22.18050500   
   240       C         10.14550500      2.67658400     12.27329300   
   241       C         19.29932600     15.89101400     20.03346100   
   242       C          9.87351400      1.24682600     10.05403900   
   243       C          4.03653900      7.26432600     20.21398600   
   244       C         20.21398600      4.03653900      7.26432600   
   245       C         20.03346100     19.29932600     15.89101400   
   246       C         15.89101400     20.03346100     19.29932600   
   247       C          7.26432600     20.21398600      4.03653900   
   248       C         21.90851400     10.78817400     14.01596100   
   249       C         22.82317400     22.08903900      2.16148600   
   250       C          2.16148600     22.82317400     22.08903900   
   251       C         22.08903900      2.16148600     22.82317400   
   252       C         10.78817400     14.01596100     21.90851400   
   253       C         14.01596100     21.90851400     10.78817400   
   254       C          8.17898600      7.99846100     16.80567400   
   255       C          4.77067400      3.85601400     16.07153900   
   256       C         16.80567400      8.17898600      7.99846100   
   257       C         16.07153900      4.77067400      3.85601400   
   258       C          7.99846100     16.80567400      8.17898600   
   259       C          3.85601400     16.07153900      4.77067400   
   260       C          1.24682600     10.05403900      9.87351400   
   261       C          1.98096100     14.19648600     13.28182600   
   262       C         14.19648600     13.28182600      1.98096100   
   263       C         10.05403900      9.87351400      1.24682600   
   264       C         13.28182600      1.98096100     14.19648600   
   265       C         16.88029100     15.47701000     21.48728900   
   266       C          9.45951000     22.89779100      8.60021100   
   267       C          2.58271100      4.84529100     20.62799000   
   268       C         20.62799000      2.58271100      4.84529100   
   269       C         21.48728900     16.88029100     15.47701000   
   270       C         15.47701000     21.48728900     16.88029100   
   271       C          4.84529100     20.62799000      2.58271100   
   272       C         21.49451000     13.20720900     15.46978900   
   273       C          1.17220900     20.63521100      2.57549000   
   274       C          2.57549000      1.17220900     20.63521100   
   275       C         20.63521100      2.57549000      1.17220900   
   276       C         13.20720900     15.46978900     21.49451000   
   277       C         15.46978900     21.49451000     13.20720900   
   278       C          8.59299000      9.45228900     19.22470900   
   279       C          7.18970900      3.44201000     14.61771100   
   280       C         19.22470900      8.59299000      9.45228900   
   281       C         14.61771100      7.18970900      3.44201000   
   282       C          9.45228900     19.22470900      8.59299000   
   283       C          3.44201000     14.61771100      7.18970900   
   284       C         22.89779100      8.60021100      9.45951000   
   285       C          3.43478900     14.61049000     10.86279100   
   286       C         14.61049000     10.86279100      3.43478900   
   287       C          8.60021100      9.45951000     22.89779100   
   288       C         10.86279100      3.43478900     14.61049000   
   289       H         13.45031600     21.59801100     17.55184400   
   290       H         15.58051100     19.46781600     12.53565600   
   291       H          6.51815600      1.41531600     14.50698900   
   292       H         14.50698900      6.51815600      1.41531600   
   293       H         17.55184400     13.45031600     21.59801100   
   294       H         21.59801100     17.55184400     13.45031600   
   295       H          1.41531600     14.50698900      6.51815600   
   296       H          3.54551100     16.63718400     11.53434400   
   297       H          4.60218400      0.50065600     20.52448900   
   298       H         20.52448900      4.60218400      0.50065600   
   299       H          0.50065600     20.52448900      4.60218400   
   300       H         16.63718400     11.53434400      3.54551100   
   301       H         11.53434400      3.54551100     16.63718400   
   302       H          2.47198900      5.51684400     22.65468400   
   303       H         10.61968400      9.56301100     18.55315600   
   304       H         22.65468400      2.47198900      5.51684400   
   305       H         18.55315600     10.61968400      9.56301100   
   306       H          5.51684400     22.65468400      2.47198900   
   307       H          9.56301100     18.55315600     10.61968400   
   308       H         19.46781600     12.53565600     15.58051100   
   309       H         23.56934400      8.48948900      7.43281600   
   310       H          8.48948900      7.43281600     23.56934400   
   311       H         12.53565600     15.58051100     19.46781600   
   312       H          7.43281600     23.56934400      8.48948900   
   313       H         13.74878400     20.12733400     19.49910700   
   314       H         14.10983400     19.76628400     10.58839300   
   315       H          4.57089300      1.71378400     15.97766600   
   316       H         15.97766600      4.57089300      1.71378400   
   317       H         19.49910700     13.74878400     20.12733400   
   318       H         20.12733400     19.49910700     13.74878400   
   319       H          1.71378400     15.97766600      4.57089300   
   320       H          2.07483400     16.33871600     13.48160700   
   321       H          4.30371600     22.62339300     21.99516600   
   322       H         21.99516600      4.30371600     22.62339300   
   323       H         22.62339300     21.99516600      4.30371600   
   324       H         16.33871600     13.48160700      2.07483400   
   325       H         13.48160700      2.07483400     16.33871600   
   326       H          3.94266600      7.46410700     22.35621600   
   327       H         10.32121600      8.09233400     16.60589300   
   328       H         22.35621600      3.94266600      7.46410700   
   329       H         16.60589300     10.32121600      8.09233400   
   330       H          7.46410700     22.35621600      3.94266600   
   331       H          8.09233400     16.60589300     10.32121600   
   332       H         19.76628400     10.58839300     14.10983400   
   333       H          1.44660700      9.96016600      7.73128400   
   334       H          9.96016600      7.73128400      1.44660700   
   335       H         10.58839300     14.10983400     19.76628400   
   336       H          7.73128400      1.44660700      9.96016600   
   337       H         14.00392600     17.89845200     20.33674300   
   338       H         11.88095200     20.02142600      9.75075700   
   339       H          3.73325700      1.96892600     18.20654800   
   340       H         18.20654800      3.73325700      1.96892600   
   341       H         20.33674300     14.00392600     17.89845200   
   342       H         17.89845200     20.33674300     14.00392600   
   343       H          1.96892600     18.20654800      3.73325700   
   344       H         23.91595200     16.08357400     14.31924300   
   345       H          4.04857400     21.78575700      0.15404800   
   346       H          0.15404800      4.04857400     21.78575700   
   347       H         21.78575700      0.15404800      4.04857400   
   348       H         16.08357400     14.31924300     23.91595200   
   349       H         14.31924300     23.91595200     16.08357400   
   350       H          6.17154800      8.30174300     22.10107400   
   351       H         10.06607400      5.86345200     15.76825700   
   352       H         22.10107400      6.17154800      8.30174300   
   353       H         15.76825700     10.06607400      5.86345200   
   354       H          8.30174300     22.10107400      6.17154800   
   355       H          5.86345200     15.76825700     10.06607400   
   356       H         20.02142600      9.75075700     11.88095200   
   357       H          2.28424300     12.18904800      7.98642600   
   358       H         12.18904800      7.98642600      2.28424300   
   359       H          9.75075700     11.88095200     20.02142600   
   360       H          7.98642600      2.28424300     12.18904800   
   361      Tv         24.07000000      0.00000000      0.00000000   
   362      Tv          0.00000000     24.07000000      0.00000000   
   363      Tv          0.00000000      0.00000000     24.07000000   


                   THE SYSTEM IS A SOLID


                UNIT CELL TRANSLATION VECTORS

              X                Y              Z
    T1 =    24.0700000      0.0000000      0.0000000
    T2 =     0.0000000     24.0700000      0.0000000
    T3 =     0.0000000      0.0000000     24.0700000


          CARTESIAN COORDINATES 

    NO.       ATOM           X           Y           Z

     1         N         16.5481     19.0201     20.1899
     2         N         13.0026     22.5656      9.8976
     3         N          3.8801      4.5131     17.0849
     4         N         17.0849      3.8801      4.5131
     5         N         20.1899     16.5481     19.0201
     6         N         19.0201     20.1899     16.5481
     7         N          4.5131     17.0849      3.8801
     8         N          0.9676     13.5394     14.1724
     9         N          1.5044     21.9326     23.1024
    10         N         23.1024      1.5044     21.9326
    11         N         21.9326     23.1024      1.5044
    12         N         13.5394     14.1724      0.9676
    13         N         14.1724      0.9676     13.5394
    14         N          5.0499      8.1549     19.5569
    15         N          7.5219      6.9851     15.9151
    16         N         19.5569      5.0499      8.1549
    17         N         15.9151      7.5219      6.9851
    18         N          8.1549     19.5569      5.0499
    19         N          6.9851     15.9151      7.5219
    20         N         22.5656      9.8976     13.0026
    21         N          2.1374     11.0674     10.5306
    22         N         11.0674     10.5306      2.1374
    23         N          9.8976     13.0026     22.5656
    24         N         10.5306      2.1374     11.0674
    25         C         17.7661     14.4613     21.2297
    26         C          8.4438     23.7836      8.8578
    27         C          2.8403      5.7311     21.6437
    28         C         21.6437      2.8403      5.7311
    29         C         21.2297     17.7661     14.4613
    30         C         14.4613     21.2297     17.7661
    31         C          5.7311     21.6437      2.8403
    32         C         20.4788     12.3214     15.2122
    33         C          0.2864     20.8928      3.5912
    34         C          3.5912      0.2864     20.8928
    35         C         20.8928      3.5912      0.2864
    36         C         12.3214     15.2122     20.4788
    37         C         15.2122     20.4788     12.3214
    38         C          9.6087      9.1947     18.3389
    39         C          6.3039      2.4263     14.8753
    40         C         18.3389      9.6087      9.1947
    41         C         14.8753      6.3039      2.4263
    42         C          9.1947     18.3389      9.6087
    43         C          2.4263     14.8753      6.3039
    44         C         23.7836      8.8578      8.4438
    45         C          3.1772     15.6262     11.7486
    46         C         15.6262     11.7486      3.1772
    47         C          8.8578      8.4438     23.7836
    48         C         11.7486      3.1772     15.6262
    49         C         18.9407     14.6370     20.4210
    50         C          8.6195      0.8882      9.6665
    51         C          3.6490      6.9057     21.4680
    52         C         21.4680      3.6490      6.9057
    53         C         20.4210     18.9407     14.6370
    54         C         14.6370     20.4210     18.9407
    55         C          6.9057     21.4680      3.6490
    56         C         20.6545     11.1468     14.4035
    57         C         23.1818     21.7015      3.4155
    58         C          3.4155     23.1818     21.7015
    59         C         21.7015      3.4155     23.1818
    60         C         11.1468     14.4035     20.6545
    61         C         14.4035     20.6545     11.1468
    62         C          9.4330      8.3860     17.1643
    63         C          5.1293      2.6020     15.6840
    64         C         17.1643      9.4330      8.3860
    65         C         15.6840      5.1293      2.6020
    66         C          8.3860     17.1643      9.4330
    67         C          2.6020     15.6840      5.1293
    68         C          0.8882      9.6665      8.6195
    69         C          2.3685     15.4505     12.9232
    70         C         15.4505     12.9232      2.3685
    71         C          9.6665      8.6195      0.8882
    72         C         12.9232      2.3685     15.4505
    73         C         14.7934     17.3039     20.8133
    74         C         11.2864     20.8109      9.2742
    75         C          3.2567      2.7584     18.8011
    76         C         18.8011      3.2567      2.7584
    77         C         20.8133     14.7934     17.3039
    78         C         17.3039     20.8133     14.7934
    79         C          2.7584     18.8011      3.2567
    80         C         23.3214     15.2941     14.7958
    81         C          3.2591     21.3092      0.7486
    82         C          0.7486      3.2591     21.3092
    83         C         21.3092      0.7486      3.2591
    84         C         15.2941     14.7958     23.3214
    85         C         14.7958     23.3214     15.2941
    86         C          6.7661      8.7783     21.3116
    87         C          9.2766      5.2689     15.2917
    88         C         21.3116      6.7661      8.7783
    89         C         15.2917      9.2766      5.2689
    90         C          8.7783     21.3116      6.7661
    91         C          5.2689     15.2917      9.2766
    92         C         20.8109      9.2742     11.2864
    93         C          2.7608     12.7836      8.7759
    94         C         12.7836      8.7759      2.7608
    95         C          9.2742     11.2864     20.8109
    96         C          8.7759      2.7608     12.7836
    97         C         15.5588     15.3831     22.1420
    98         C          9.3656     21.5763      7.9455
    99         C          1.9280      3.5238     20.7219
   100         C         20.7219      1.9280      3.5238
   101         C         22.1420     15.5588     15.3831
   102         C         15.3831     22.1420     15.5588
   103         C          3.5238     20.7219      1.9280
   104         C         21.4006     14.5287     16.1245
   105         C          2.4937     19.9805      2.6694
   106         C          2.6694      2.4937     19.9805
   107         C         19.9805      2.6694      2.4937
   108         C         14.5287     16.1245     21.4006
   109         C         16.1245     21.4006     14.5287
   110         C          8.6869     10.1070     20.5462
   111         C          8.5112      3.3481     13.9630
   112         C         20.5462      8.6869     10.1070
   113         C         13.9630      8.5112      3.3481
   114         C         10.1070     20.5462      8.6869
   115         C          3.3481     13.9630      8.5112
   116         C         21.5763      7.9455      9.3656
   117         C          4.0895     14.7044      9.5413
   118         C         14.7044      9.5413      4.0895
   119         C          7.9455      9.3656     21.5763
   120         C          9.5413      4.0895     14.7044
   121         C         19.2175     19.9805     17.9851
   122         C         13.9630      1.1650     12.1024
   123         C          6.0849      7.1825     16.1245
   124         C         16.1245      6.0849      7.1825
   125         C         17.9851     19.2175     19.9805
   126         C         19.9805     17.9851     19.2175
   127         C          7.1825     16.1245      6.0849
   128         C          1.9280     10.8700     11.9676
   129         C         22.9050      0.0674     22.1420
   130         C         22.1420     22.9050      0.0674
   131         C          0.0674     22.1420     22.9050
   132         C         10.8700     11.9676      1.9280
   133         C         11.9676      1.9280     10.8700
   134         C          4.0895      5.9501     16.8875
   135         C          4.8525      7.9455     18.1199
   136         C         16.8875      4.0895      5.9501
   137         C         18.1199      4.8525      7.9455
   138         C          5.9501     16.8875      4.0895
   139         C          7.9455     18.1199      4.8525
   140         C          1.1650     12.1024     13.9630
   141         C         24.0026     10.1070     13.2000
   142         C         10.1070     13.2000     24.0026
   143         C         12.1024     13.9630      1.1650
   144         C         13.2000     24.0026     10.1070
   145         C         18.4569     16.9453     20.5630
   146         C         10.9278      0.4044      9.5245
   147         C          3.5070      6.4219     19.1597
   148         C         19.1597      3.5070      6.4219
   149         C         20.5630     18.4569     16.9453
   150         C         16.9453     20.5630     18.4569
   151         C          6.4219     19.1597      3.5070
   152         C         22.9628     11.6306     14.5455
   153         C         23.6656     21.5595      1.1072
   154         C          1.1072     23.6656     21.5595
   155         C         21.5595      1.1072     23.6656
   156         C         11.6306     14.5455     22.9628
   157         C         14.5455     22.9628     11.6306
   158         C          7.1247      8.5280     17.6481
   159         C          5.6131      4.9103     15.5420
   160         C         17.6481      7.1247      8.5280
   161         C         15.5420      5.6131      4.9103
   162         C          8.5280     17.6481      7.1247
   163         C          4.9103     15.5420      5.6131
   164         C          0.4044      9.5245     10.9278
   165         C          2.5105     13.1422     12.4394
   166         C         13.1422     12.4394      2.5105
   167         C          9.5245     10.9278      0.4044
   168         C         12.4394      2.5105     13.1422
   169         C         23.2251     21.9904     23.9087
   170         C         15.9729      5.1726      6.1788
   171         C          0.1613     11.1901     14.1146
   172         C         14.1146      0.1613     11.1901
   173         C         23.9087     23.2251     21.9904
   174         C         21.9904     23.9087     23.2251
   175         C         11.1901     14.1146      0.1613
   176         C          3.9379      6.8624     17.8912
   177         C         18.8974     18.2138     20.1321
   178         C         20.1321     18.8974     18.2138
   179         C         18.2138     20.1321     18.8974
   180         C          6.8624     17.8912      3.9379
   181         C         17.8912      3.9379      6.8624
   182         C          2.0796     11.8737     12.8799
   183         C          0.8449      9.9554     12.1963
   184         C         12.8799      2.0796     11.8737
   185         C         12.1963      0.8449      9.9554
   186         C         11.8737     12.8799      2.0796
   187         C          9.9554     12.1963      0.8449
   188         C          5.1726      6.1788     15.9729
   189         C          5.8562      8.0971     17.2076
   190         C          8.0971     17.2076      5.8562
   191         C          6.1788     15.9729      5.1726
   192         C         17.2076      5.8562      8.0971
   193         C         17.1667     16.7912     21.0083
   194         C         10.7737     23.1842      9.0792
   195         C          3.0617      5.1317     19.3138
   196         C         19.3138      3.0617      5.1317
   197         C         21.0083     17.1667     16.7912
   198         C         16.7912     21.0083     17.1667
   199         C          5.1317     19.3138      3.0617
   200         C         22.8087     12.9208     14.9908
   201         C          0.8858     21.1142      1.2613
   202         C          1.2613      0.8858     21.1142
   203         C         21.1142      1.2613      0.8858
   204         C         12.9208     14.9908     22.8087
   205         C         14.9908     22.8087     12.9208
   206         C          7.2788      8.9733     18.9383
   207         C          6.9033      4.7562     15.0967
   208         C         18.9383      7.2788      8.9733
   209         C         15.0967      6.9033      4.7562
   210         C          8.9733     18.9383      7.2788
   211         C          4.7562     15.0967      6.9033
   212         C         23.1842      9.0792     10.7737
   213         C          2.9558     13.2963     11.1492
   214         C         13.2963     11.1492      2.9558
   215         C          9.0792     10.7737     23.1842
   216         C         11.1492      2.9558     13.2963
   217         C         16.1630     17.8142     20.7291
   218         C         11.7967     22.1805      9.3584
   219         C          3.3409      4.1280     18.2908
   220         C         18.2908      3.3409      4.1280
   221         C         20.7291     16.1630     17.8142
   222         C         17.8142     20.7291     16.1630
   223         C          4.1280     18.2908      3.3409
   224         C         23.8317     13.9245     14.7116
   225         C          1.8895     21.3934      0.2383
   226         C          0.2383      1.8895     21.3934
   227         C         21.3934      0.2383      1.8895
   228         C         13.9245     14.7116     23.8317
   229         C         14.7116     23.8317     13.9245
   230         C          6.2558      8.6941     19.9420
   231         C          7.9070      5.7792     15.3759
   232         C         19.9420      6.2558      8.6941
   233         C         15.3759      7.9070      5.7792
   234         C          8.6941     19.9420      6.2558
   235         C          5.7792     15.3759      7.9070
   236         C         22.1805      9.3584     11.7967
   237         C          2.6766     12.2733     10.1455
   238         C         12.2733     10.1455      2.6766
   239         C          9.3584     11.7967     22.1805
   240         C         10.1455      2.6766     12.2733
   241         C         19.2993     15.8910     20.0335
   242         C          9.8735      1.2468     10.0540
   243         C          4.0365      7.2643     20.2140
   244         C         20.2140      4.0365      7.2643
   245         C         20.0335     19.2993     15.8910
   246         C         15.8910     20.0335     19.2993
   247         C          7.2643     20.2140      4.0365
   248         C         21.9085     10.7882     14.0160
   249         C         22.8232     22.0890      2.1615
   250         C          2.1615     22.8232     22.0890
   251         C         22.0890      2.1615     22.8232
   252         C         10.7882     14.0160     21.9085
   253         C         14.0160     21.9085     10.7882
   254         C          8.1790      7.9985     16.8057
   255         C          4.7707      3.8560     16.0715
   256         C         16.8057      8.1790      7.9985
   257         C         16.0715      4.7707      3.8560
   258         C          7.9985     16.8057      8.1790
   259         C          3.8560     16.0715      4.7707
   260         C          1.2468     10.0540      9.8735
   261         C          1.9810     14.1965     13.2818
   262         C         14.1965     13.2818      1.9810
   263         C         10.0540      9.8735      1.2468
   264         C         13.2818      1.9810     14.1965
   265         C         16.8803     15.4770     21.4873
   266         C          9.4595     22.8978      8.6002
   267         C          2.5827      4.8453     20.6280
   268         C         20.6280      2.5827      4.8453
   269         C         21.4873     16.8803     15.4770
   270         C         15.4770     21.4873     16.8803
   271         C          4.8453     20.6280      2.5827
   272         C         21.4945     13.2072     15.4698
   273         C          1.1722     20.6352      2.5755
   274         C          2.5755      1.1722     20.6352
   275         C         20.6352      2.5755      1.1722
   276         C         13.2072     15.4698     21.4945
   277         C         15.4698     21.4945     13.2072
   278         C          8.5930      9.4523     19.2247
   279         C          7.1897      3.4420     14.6177
   280         C         19.2247      8.5930      9.4523
   281         C         14.6177      7.1897      3.4420
   282         C          9.4523     19.2247      8.5930
   283         C          3.4420     14.6177      7.1897
   284         C         22.8978      8.6002      9.4595
   285         C          3.4348     14.6105     10.8628
   286         C         14.6105     10.8628      3.4348
   287         C          8.6002      9.4595     22.8978
   288         C         10.8628      3.4348     14.6105
   289         H         13.4503     21.5980     17.5518
   290         H         15.5805     19.4678     12.5357
   291         H          6.5182      1.4153     14.5070
   292         H         14.5070      6.5182      1.4153
   293         H         17.5518     13.4503     21.5980
   294         H         21.5980     17.5518     13.4503
   295         H          1.4153     14.5070      6.5182
   296         H          3.5455     16.6372     11.5343
   297         H          4.6022      0.5007     20.5245
   298         H         20.5245      4.6022      0.5007
   299         H          0.5007     20.5245      4.6022
   300         H         16.6372     11.5343      3.5455
   301         H         11.5343      3.5455     16.6372
   302         H          2.4720      5.5168     22.6547
   303         H         10.6197      9.5630     18.5532
   304         H         22.6547      2.4720      5.5168
   305         H         18.5532     10.6197      9.5630
   306         H          5.5168     22.6547      2.4720
   307         H          9.5630     18.5532     10.6197
   308         H         19.4678     12.5357     15.5805
   309         H         23.5693      8.4895      7.4328
   310         H          8.4895      7.4328     23.5693
   311         H         12.5357     15.5805     19.4678
   312         H          7.4328     23.5693      8.4895
   313         H         13.7488     20.1273     19.4991
   314         H         14.1098     19.7663     10.5884
   315         H          4.5709      1.7138     15.9777
   316         H         15.9777      4.5709      1.7138
   317         H         19.4991     13.7488     20.1273
   318         H         20.1273     19.4991     13.7488
   319         H          1.7138     15.9777      4.5709
   320         H          2.0748     16.3387     13.4816
   321         H          4.3037     22.6234     21.9952
   322         H         21.9952      4.3037     22.6234
   323         H         22.6234     21.9952      4.3037
   324         H         16.3387     13.4816      2.0748
   325         H         13.4816      2.0748     16.3387
   326         H          3.9427      7.4641     22.3562
   327         H         10.3212      8.0923     16.6059
   328         H         22.3562      3.9427      7.4641
   329         H         16.6059     10.3212      8.0923
   330         H          7.4641     22.3562      3.9427
   331         H          8.0923     16.6059     10.3212
   332         H         19.7663     10.5884     14.1098
   333         H          1.4466      9.9602      7.7313
   334         H          9.9602      7.7313      1.4466
   335         H         10.5884     14.1098     19.7663
   336         H          7.7313      1.4466      9.9602
   337         H         14.0039     17.8985     20.3367
   338         H         11.8810     20.0214      9.7508
   339         H          3.7333      1.9689     18.2065
   340         H         18.2065      3.7333      1.9689
   341         H         20.3367     14.0039     17.8985
   342         H         17.8985     20.3367     14.0039
   343         H          1.9689     18.2065      3.7333
   344         H         23.9160     16.0836     14.3192
   345         H          4.0486     21.7858      0.1540
   346         H          0.1540      4.0486     21.7858
   347         H         21.7858      0.1540      4.0486
   348         H         16.0836     14.3192     23.9160
   349         H         14.3192     23.9160     16.0836
   350         H          6.1715      8.3017     22.1011
   351         H         10.0661      5.8635     15.7683
   352         H         22.1011      6.1715      8.3017
   353         H         15.7683     10.0661      5.8635
   354         H          8.3017     22.1011      6.1715
   355         H          5.8635     15.7683     10.0661
   356         H         20.0214      9.7508     11.8810
   357         H          2.2842     12.1890      7.9864
   358         H         12.1890      7.9864      2.2842
   359         H          9.7508     11.8810     20.0214
   360         H          7.9864      2.2842     12.1890

 General Reference for PM7:
 "Optimization of Parameters for Semiempirical Methods VI: More Modifications to the 
 NDDO Approximations and Re-optimization of Parameters", J. J. P. Stewart, J. Mol. Mod., 1:32, 19 (2013)
 https://link.springer.com/article/10.1007/s00894-012-1667-x

           Empirical Formula: C264 H72 N24  =   360 atoms



      RHF CALCULATION, NO. OF DOUBLY OCCUPIED LEVELS = 624


 -------------------------------------------------------------------------------
 PM7 CHARGE=0 NOOPT




     NO PARAMETERS MARKED FOR OPTIMIZATION, SO 1SCF WAS USED  
     SCF FIELD WAS ACHIEVED                                   


                              PM7 CALCULATION
                                                       MOPAC v22.1.0 Linux
                                                       Wed Jan 31 14:38:37 2024




          FINAL HEAT OF FORMATION =       3052.98305 KCAL/MOL =   12773.68108 KJ/MOL
          H.o.F. per unit cell    =        127.20763 KCAL, for 24 unit cells, unit cell = C11 H3 N1



          IONIZATION POTENTIAL    =          6.878097 EV
          HOMO LUMO ENERGIES (EV) =         -6.878 -2.406
          NO. OF FILLED LEVELS    =        624
          MOLECULAR WEIGHT        =       3579.6336

                   THE SYSTEM IS A SOLID


                UNIT CELL TRANSLATION VECTORS

              X                Y              Z
    T1 =    24.0700000      0.0000000      0.0000000
    T2 =     0.0000000     24.0700000      0.0000000
    T3 =     0.0000000      0.0000000     24.0700000

          VOLUME OF UNIT CELL     =      13945.313 CUBIC ANGSTROMS

          DENSITY                 =          0.426 GRAMS/CC
                              A   =         24.070 ANGSTROMS
                              B   =         24.070 ANGSTROMS
                              C   =         24.070 ANGSTROMS
                            ALPHA =         90.000 DEGREES
                            BETA  =         90.000 DEGREES
                            GAMMA =         90.000 DEGREES



          SCF CALCULATIONS        =          1

          WALL-CLOCK TIME         =          7 MINUTES AND 21.273 SECONDS
          COMPUTATION TIME        =          7 MINUTES AND 21.262 SECONDS




   ATOM   CHEMICAL          X               Y               Z
  NUMBER   SYMBOL      (ANGSTROMS)     (ANGSTROMS)     (ANGSTROMS)

     1       N         16.54812500     19.02011400     20.18991600   
     2       N         13.00261400     22.56562500      9.89758400   
     3       N          3.88008400      4.51312500     17.08488600   
     4       N         17.08488600      3.88008400      4.51312500   
     5       N         20.18991600     16.54812500     19.02011400   
     6       N         19.02011400     20.18991600     16.54812500   
     7       N          4.51312500     17.08488600      3.88008400   
     8       N          0.96761400     13.53937500     14.17241600   
     9       N          1.50437500     21.93258400     23.10238600   
    10       N         23.10238600      1.50437500     21.93258400   
    11       N         21.93258400     23.10238600      1.50437500   
    12       N         13.53937500     14.17241600      0.96761400   
    13       N         14.17241600      0.96761400     13.53937500   
    14       N          5.04988600      8.15491600     19.55687500   
    15       N          7.52187500      6.98511400     15.91508400   
    16       N         19.55687500      5.04988600      8.15491600   
    17       N         15.91508400      7.52187500      6.98511400   
    18       N          8.15491600     19.55687500      5.04988600   
    19       N          6.98511400     15.91508400      7.52187500   
    20       N         22.56562500      9.89758400     13.00261400   
    21       N          2.13741600     11.06738600     10.53062500   
    22       N         11.06738600     10.53062500      2.13741600   
    23       N          9.89758400     13.00261400     22.56562500   
    24       N         10.53062500      2.13741600     11.06738600   
    25       C         17.76606700     14.46125600     21.22974000   
    26       C          8.44375600     23.78356700      8.85776000   
    27       C          2.84026000      5.73106700     21.64374400   
    28       C         21.64374400      2.84026000      5.73106700   
    29       C         21.22974000     17.76606700     14.46125600   
    30       C         14.46125600     21.22974000     17.76606700   
    31       C          5.73106700     21.64374400      2.84026000   
    32       C         20.47875600     12.32143300     15.21224000   
    33       C          0.28643300     20.89276000      3.59124400   
    34       C          3.59124400      0.28643300     20.89276000   
    35       C         20.89276000      3.59124400      0.28643300   
    36       C         12.32143300     15.21224000     20.47875600   
    37       C         15.21224000     20.47875600     12.32143300   
    38       C          9.60874400      9.19474000     18.33893300   
    39       C          6.30393300      2.42625600     14.87526000   
    40       C         18.33893300      9.60874400      9.19474000   
    41       C         14.87526000      6.30393300      2.42625600   
    42       C          9.19474000     18.33893300      9.60874400   
    43       C          2.42625600     14.87526000      6.30393300   
    44       C         23.78356700      8.85776000      8.44375600   
    45       C          3.17724000     15.62624400     11.74856700   
    46       C         15.62624400     11.74856700      3.17724000   
    47       C          8.85776000      8.44375600     23.78356700   
    48       C         11.74856700      3.17724000     15.62624400   
    49       C         18.94068300     14.63696700     20.42098800   
    50       C          8.61946700      0.88818300      9.66651200   
    51       C          3.64901200      6.90568300     21.46803300   
    52       C         21.46803300      3.64901200      6.90568300   
    53       C         20.42098800     18.94068300     14.63696700   
    54       C         14.63696700     20.42098800     18.94068300   
    55       C          6.90568300     21.46803300      3.64901200   
    56       C         20.65446700     11.14681700     14.40348800   
    57       C         23.18181700     21.70151200      3.41553300   
    58       C          3.41553300     23.18181700     21.70151200   
    59       C         21.70151200      3.41553300     23.18181700   
    60       C         11.14681700     14.40348800     20.65446700   
    61       C         14.40348800     20.65446700     11.14681700   
    62       C          9.43303300      8.38598800     17.16431700   
    63       C          5.12931700      2.60196700     15.68401200   
    64       C         17.16431700      9.43303300      8.38598800   
    65       C         15.68401200      5.12931700      2.60196700   
    66       C          8.38598800     17.16431700      9.43303300   
    67       C          2.60196700     15.68401200      5.12931700   
    68       C          0.88818300      9.66651200      8.61946700   
    69       C          2.36848800     15.45053300     12.92318300   
    70       C         15.45053300     12.92318300      2.36848800   
    71       C          9.66651200      8.61946700      0.88818300   
    72       C         12.92318300      2.36848800     15.45053300   
    73       C         14.79342200     17.30392300     20.81332900   
    74       C         11.28642300     20.81092200      9.27417100   
    75       C          3.25667100      2.75842200     18.80107700   
    76       C         18.80107700      3.25667100      2.75842200   
    77       C         20.81332900     14.79342200     17.30392300   
    78       C         17.30392300     20.81332900     14.79342200   
    79       C          2.75842200     18.80107700      3.25667100   
    80       C         23.32142300     15.29407800     14.79582900   
    81       C          3.25907800     21.30917100      0.74857700   
    82       C          0.74857700      3.25907800     21.30917100   
    83       C         21.30917100      0.74857700      3.25907800   
    84       C         15.29407800     14.79582900     23.32142300   
    85       C         14.79582900     23.32142300     15.29407800   
    86       C          6.76607700      8.77832900     21.31157800   
    87       C          9.27657800      5.26892300     15.29167100   
    88       C         21.31157800      6.76607700      8.77832900   
    89       C         15.29167100      9.27657800      5.26892300   
    90       C          8.77832900     21.31157800      6.76607700   
    91       C          5.26892300     15.29167100      9.27657800   
    92       C         20.81092200      9.27417100     11.28642300   
    93       C          2.76082900     12.78357700      8.77592200   
    94       C         12.78357700      8.77592200      2.76082900   
    95       C          9.27417100     11.28642300     20.81092200   
    96       C          8.77592200      2.76082900     12.78357700   
    97       C         15.55884800     15.38313700     22.14199300   
    98       C          9.36563700     21.57634800      7.94550700   
    99       C          1.92800700      3.52384800     20.72186300   
   100       C         20.72186300      1.92800700      3.52384800   
   101       C         22.14199300     15.55884800     15.38313700   
   102       C         15.38313700     22.14199300     15.55884800   
   103       C          3.52384800     20.72186300      1.92800700   
   104       C         21.40063700     14.52865200     16.12449300   
   105       C          2.49365200     19.98050700      2.66936300   
   106       C          2.66936300      2.49365200     19.98050700   
   107       C         19.98050700      2.66936300      2.49365200   
   108       C         14.52865200     16.12449300     21.40063700   
   109       C         16.12449300     21.40063700     14.52865200   
   110       C          8.68686300     10.10699300     20.54615200   
   111       C          8.51115200      3.34813700     13.96300700   
   112       C         20.54615200      8.68686300     10.10699300   
   113       C         13.96300700      8.51115200      3.34813700   
   114       C         10.10699300     20.54615200      8.68686300   
   115       C          3.34813700     13.96300700      8.51115200   
   116       C         21.57634800      7.94550700      9.36563700   
   117       C          4.08949300     14.70436300      9.54134800   
   118       C         14.70436300      9.54134800      4.08949300   
   119       C          7.94550700      9.36563700     21.57634800   
   120       C          9.54134800      4.08949300     14.70436300   
   121       C         19.21748800     19.98050700     17.98510400   
   122       C         13.96300700      1.16498800     12.10239600   
   123       C          6.08489600      7.18248800     16.12449300   
   124       C         16.12449300      6.08489600      7.18248800   
   125       C         17.98510400     19.21748800     19.98050700   
   126       C         19.98050700     17.98510400     19.21748800   
   127       C          7.18248800     16.12449300      6.08489600   
   128       C          1.92800700     10.87001200     11.96760400   
   129       C         22.90501200      0.06739600     22.14199300   
   130       C         22.14199300     22.90501200      0.06739600   
   131       C          0.06739600     22.14199300     22.90501200   
   132       C         10.87001200     11.96760400      1.92800700   
   133       C         11.96760400      1.92800700     10.87001200   
   134       C          4.08949300      5.95010400     16.88751200   
   135       C          4.85251200      7.94550700     18.11989600   
   136       C         16.88751200      4.08949300      5.95010400   
   137       C         18.11989600      4.85251200      7.94550700   
   138       C          5.95010400     16.88751200      4.08949300   
   139       C          7.94550700     18.11989600      4.85251200   
   140       C          1.16498800     12.10239600     13.96300700   
   141       C         24.00260400     10.10699300     13.19998800   
   142       C         10.10699300     13.19998800     24.00260400   
   143       C         12.10239600     13.96300700      1.16498800   
   144       C         13.19998800     24.00260400     10.10699300   
   145       C         18.45687600     16.94528000     20.56300100   
   146       C         10.92778000      0.40437600      9.52449900   
   147       C          3.50699900      6.42187600     19.15972000   
   148       C         19.15972000      3.50699900      6.42187600   
   149       C         20.56300100     18.45687600     16.94528000   
   150       C         16.94528000     20.56300100     18.45687600   
   151       C          6.42187600     19.15972000      3.50699900   
   152       C         22.96278000     11.63062400     14.54550100   
   153       C         23.66562400     21.55949900      1.10722000   
   154       C          1.10722000     23.66562400     21.55949900   
   155       C         21.55949900      1.10722000     23.66562400   
   156       C         11.63062400     14.54550100     22.96278000   
   157       C         14.54550100     22.96278000     11.63062400   
   158       C          7.12472000      8.52800100     17.64812400   
   159       C          5.61312400      4.91028000     15.54199900   
   160       C         17.64812400      7.12472000      8.52800100   
   161       C         15.54199900      5.61312400      4.91028000   
   162       C          8.52800100     17.64812400      7.12472000   
   163       C          4.91028000     15.54199900      5.61312400   
   164       C          0.40437600      9.52449900     10.92778000   
   165       C          2.51050100     13.14222000     12.43937600   
   166       C         13.14222000     12.43937600      2.51050100   
   167       C          9.52449900     10.92778000      0.40437600   
   168       C         12.43937600      2.51050100     13.14222000   
   169       C         23.22514300     21.99035200     23.90873100   
   170       C         15.97285200      5.17264300      6.17876900   
   171       C          0.16126900     11.19014300     14.11464800   
   172       C         14.11464800      0.16126900     11.19014300   
   173       C         23.90873100     23.22514300     21.99035200   
   174       C         21.99035200     23.90873100     23.22514300   
   175       C         11.19014300     14.11464800      0.16126900   
   176       C          3.93785200      6.86235700     17.89123100   
   177       C         18.89735700     18.21376900     20.13214800   
   178       C         20.13214800     18.89735700     18.21376900   
   179       C         18.21376900     20.13214800     18.89735700   
   180       C          6.86235700     17.89123100      3.93785200   
   181       C         17.89123100      3.93785200      6.86235700   
   182       C          2.07964800     11.87373100     12.87985700   
   183       C          0.84485700      9.95535200     12.19626900   
   184       C         12.87985700      2.07964800     11.87373100   
   185       C         12.19626900      0.84485700      9.95535200   
   186       C         11.87373100     12.87985700      2.07964800   
   187       C          9.95535200     12.19626900      0.84485700   
   188       C          5.17264300      6.17876900     15.97285200   
   189       C          5.85623100      8.09714800     17.20764300   
   190       C          8.09714800     17.20764300      5.85623100   
   191       C          6.17876900     15.97285200      5.17264300   
   192       C         17.20764300      5.85623100      8.09714800   
   193       C         17.16672400     16.79123200     21.00829600   
   194       C         10.77373200     23.18422400      9.07920400   
   195       C          3.06170400      5.13172400     19.31376800   
   196       C         19.31376800      3.06170400      5.13172400   
   197       C         21.00829600     17.16672400     16.79123200   
   198       C         16.79123200     21.00829600     17.16672400   
   199       C          5.13172400     19.31376800      3.06170400   
   200       C         22.80873200     12.92077600     14.99079600   
   201       C          0.88577600     21.11420400      1.26126800   
   202       C          1.26126800      0.88577600     21.11420400   
   203       C         21.11420400      1.26126800      0.88577600   
   204       C         12.92077600     14.99079600     22.80873200   
   205       C         14.99079600     22.80873200     12.92077600   
   206       C          7.27876800      8.97329600     18.93827600   
   207       C          6.90327600      4.75623200     15.09670400   
   208       C         18.93827600      7.27876800      8.97329600   
   209       C         15.09670400      6.90327600      4.75623200   
   210       C          8.97329600     18.93827600      7.27876800   
   211       C          4.75623200     15.09670400      6.90327600   
   212       C         23.18422400      9.07920400     10.77373200   
   213       C          2.95579600     13.29626800     11.14922400   
   214       C         13.29626800     11.14922400      2.95579600   
   215       C          9.07920400     10.77373200     23.18422400   
   216       C         11.14922400      2.95579600     13.29626800   
   217       C         16.16300500     17.81420700     20.72908400   
   218       C         11.79670700     22.18050500      9.35841600   
   219       C          3.34091600      4.12800500     18.29079300   
   220       C         18.29079300      3.34091600      4.12800500   
   221       C         20.72908400     16.16300500     17.81420700   
   222       C         17.81420700     20.72908400     16.16300500   
   223       C          4.12800500     18.29079300      3.34091600   
   224       C         23.83170700     13.92449500     14.71158400   
   225       C          1.88949500     21.39341600      0.23829300   
   226       C          0.23829300      1.88949500     21.39341600   
   227       C         21.39341600      0.23829300      1.88949500   
   228       C         13.92449500     14.71158400     23.83170700   
   229       C         14.71158400     23.83170700     13.92449500   
   230       C          6.25579300      8.69408400     19.94199500   
   231       C          7.90699500      5.77920700     15.37591600   
   232       C         19.94199500      6.25579300      8.69408400   
   233       C         15.37591600      7.90699500      5.77920700   
   234       C          8.69408400     19.94199500      6.25579300   
   235       C          5.77920700     15.37591600      7.90699500   
   236       C         22.18050500      9.35841600     11.79670700   
   237       C          2.67658400     12.27329300     10.14550500   
   238       C         12.27329300     10.14550500      2.67658400   
   239       C          9.35841600     11.79670700     22.18050500   
   240       C         10.14550500      2.67658400     12.27329300   
   241       C         19.29932600     15.89101400     20.03346100   
   242       C          9.87351400      1.24682600     10.05403900   
   243       C          4.03653900      7.26432600     20.21398600   
   244       C         20.21398600      4.03653900      7.26432600   
   245       C         20.03346100     19.29932600     15.89101400   
   246       C         15.89101400     20.03346100     19.29932600   
   247       C          7.26432600     20.21398600      4.03653900   
   248       C         21.90851400     10.78817400     14.01596100   
   249       C         22.82317400     22.08903900      2.16148600   
   250       C          2.16148600     22.82317400     22.08903900   
   251       C         22.08903900      2.16148600     22.82317400   
   252       C         10.78817400     14.01596100     21.90851400   
   253       C         14.01596100     21.90851400     10.78817400   
   254       C          8.17898600      7.99846100     16.80567400   
   255       C          4.77067400      3.85601400     16.07153900   
   256       C         16.80567400      8.17898600      7.99846100   
   257       C         16.07153900      4.77067400      3.85601400   
   258       C          7.99846100     16.80567400      8.17898600   
   259       C          3.85601400     16.07153900      4.77067400   
   260       C          1.24682600     10.05403900      9.87351400   
   261       C          1.98096100     14.19648600     13.28182600   
   262       C         14.19648600     13.28182600      1.98096100   
   263       C         10.05403900      9.87351400      1.24682600   
   264       C         13.28182600      1.98096100     14.19648600   
   265       C         16.88029100     15.47701000     21.48728900   
   266       C          9.45951000     22.89779100      8.60021100   
   267       C          2.58271100      4.84529100     20.62799000   
   268       C         20.62799000      2.58271100      4.84529100   
   269       C         21.48728900     16.88029100     15.47701000   
   270       C         15.47701000     21.48728900     16.88029100   
   271       C          4.84529100     20.62799000      2.58271100   
   272       C         21.49451000     13.20720900     15.46978900   
   273       C          1.17220900     20.63521100      2.57549000   
   274       C          2.57549000      1.17220900     20.63521100   
   275       C         20.63521100      2.57549000      1.17220900   
   276       C         13.20720900     15.46978900     21.49451000   
   277       C         15.46978900     21.49451000     13.20720900   
   278       C          8.59299000      9.45228900     19.22470900   
   279       C          7.18970900      3.44201000     14.61771100   
   280       C         19.22470900      8.59299000      9.45228900   
   281       C         14.61771100      7.18970900      3.44201000   
   282       C          9.45228900     19.22470900      8.59299000   
   283       C          3.44201000     14.61771100      7.18970900   
   284       C         22.89779100      8.60021100      9.45951000   
   285       C          3.43478900     14.61049000     10.86279100   
   286       C         14.61049000     10.86279100      3.43478900   
   287       C          8.60021100      9.45951000     22.89779100   
   288       C         10.86279100      3.43478900     14.61049000   
   289       H         13.45031600     21.59801100     17.55184400   
   290       H         15.58051100     19.46781600     12.53565600   
   291       H          6.51815600      1.41531600     14.50698900   
   292       H         14.50698900      6.51815600      1.41531600   
   293       H         17.55184400     13.45031600     21.59801100   
   294       H         21.59801100     17.55184400     13.45031600   
   295       H          1.41531600     14.50698900      6.51815600   
   296       H          3.54551100     16.63718400     11.53434400   
   297       H          4.60218400      0.50065600     20.52448900   
   298       H         20.52448900      4.60218400      0.50065600   
   299       H          0.50065600     20.52448900      4.60218400   
   300       H         16.63718400     11.53434400      3.54551100   
   301       H         11.53434400      3.54551100     16.63718400   
   302       H          2.47198900      5.51684400     22.65468400   
   303       H         10.61968400      9.56301100     18.55315600   
   304       H         22.65468400      2.47198900      5.51684400   
   305       H         18.55315600     10.61968400      9.56301100   
   306       H          5.51684400     22.65468400      2.47198900   
   307       H          9.56301100     18.55315600     10.61968400   
   308       H         19.46781600     12.53565600     15.58051100   
   309       H         23.56934400      8.48948900      7.43281600   
   310       H          8.48948900      7.43281600     23.56934400   
   311       H         12.53565600     15.58051100     19.46781600   
   312       H          7.43281600     23.56934400      8.48948900   
   313       H         13.74878400     20.12733400     19.49910700   
   314       H         14.10983400     19.76628400     10.58839300   
   315       H          4.57089300      1.71378400     15.97766600   
   316       H         15.97766600      4.57089300      1.71378400   
   317       H         19.49910700     13.74878400     20.12733400   
   318       H         20.12733400     19.49910700     13.74878400   
   319       H          1.71378400     15.97766600      4.57089300   
   320       H          2.07483400     16.33871600     13.48160700   
   321       H          4.30371600     22.62339300     21.99516600   
   322       H         21.99516600      4.30371600     22.62339300   
   323       H         22.62339300     21.99516600      4.30371600   
   324       H         16.33871600     13.48160700      2.07483400   
   325       H         13.48160700      2.07483400     16.33871600   
   326       H          3.94266600      7.46410700     22.35621600   
   327       H         10.32121600      8.09233400     16.60589300   
   328       H         22.35621600      3.94266600      7.46410700   
   329       H         16.60589300     10.32121600      8.09233400   
   330       H          7.46410700     22.35621600      3.94266600   
   331       H          8.09233400     16.60589300     10.32121600   
   332       H         19.76628400     10.58839300     14.10983400   
   333       H          1.44660700      9.96016600      7.73128400   
   334       H          9.96016600      7.73128400      1.44660700   
   335       H         10.58839300     14.10983400     19.76628400   
   336       H          7.73128400      1.44660700      9.96016600   
   337       H         14.00392600     17.89845200     20.33674300   
   338       H         11.88095200     20.02142600      9.75075700   
   339       H          3.73325700      1.96892600     18.20654800   
   340       H         18.20654800      3.73325700      1.96892600   
   341       H         20.33674300     14.00392600     17.89845200   
   342       H         17.89845200     20.33674300     14.00392600   
   343       H          1.96892600     18.20654800      3.73325700   
   344       H         23.91595200     16.08357400     14.31924300   
   345       H          4.04857400     21.78575700      0.15404800   
   346       H          0.15404800      4.04857400     21.78575700   
   347       H         21.78575700      0.15404800      4.04857400   
   348       H         16.08357400     14.31924300     23.91595200   
   349       H         14.31924300     23.91595200     16.08357400   
   350       H          6.17154800      8.30174300     22.10107400   
   351       H         10.06607400      5.86345200     15.76825700   
   352       H         22.10107400      6.17154800      8.30174300   
   353       H         15.76825700     10.06607400      5.86345200   
   354       H          8.30174300     22.10107400      6.17154800   
   355       H          5.86345200     15.76825700     10.06607400   
   356       H         20.02142600      9.75075700     11.88095200   
   357       H          2.28424300     12.18904800      7.98642600   
   358       H         12.18904800      7.98642600      2.28424300   
   359       H          9.75075700     11.88095200     20.02142600   
   360       H          7.98642600      2.28424300     12.18904800   
   361      Tv         24.07000000      0.00000000      0.00000000   
   362      Tv          0.00000000     24.07000000      0.00000000   
   363      Tv          0.00000000      0.00000000     24.07000000   

                             CARTESIAN COORDINATES

   1    N       16.548125000    19.020114000    20.189916000
   2    N       13.002614000    22.565625000     9.897584000
   3    N        3.880084000     4.513125000    17.084886000
   4    N       17.084886000     3.880084000     4.513125000
   5    N       20.189916000    16.548125000    19.020114000
   6    N       19.020114000    20.189916000    16.548125000
   7    N        4.513125000    17.084886000     3.880084000
   8    N        0.967614000    13.539375000    14.172416000
   9    N        1.504375000    21.932584000    23.102386000
  10    N       23.102386000     1.504375000    21.932584000
  11    N       21.932584000    23.102386000     1.504375000
  12    N       13.539375000    14.172416000     0.967614000
  13    N       14.172416000     0.967614000    13.539375000
  14    N        5.049886000     8.154916000    19.556875000
  15    N        7.521875000     6.985114000    15.915084000
  16    N       19.556875000     5.049886000     8.154916000
  17    N       15.915084000     7.521875000     6.985114000
  18    N        8.154916000    19.556875000     5.049886000
  19    N        6.985114000    15.915084000     7.521875000
  20    N       22.565625000     9.897584000    13.002614000
  21    N        2.137416000    11.067386000    10.530625000
  22    N       11.067386000    10.530625000     2.137416000
  23    N        9.897584000    13.002614000    22.565625000
  24    N       10.530625000     2.137416000    11.067386000
  25    C       17.766067000    14.461256000    21.229740000
  26    C        8.443756000    23.783567000     8.857760000
  27    C        2.840260000     5.731067000    21.643744000
  28    C       21.643744000     2.840260000     5.731067000
  29    C       21.229740000    17.766067000    14.461256000
  30    C       14.461256000    21.229740000    17.766067000
  31    C        5.731067000    21.643744000     2.840260000
  32    C       20.478756000    12.321433000    15.212240000
  33    C        0.286433000    20.892760000     3.591244000
  34    C        3.591244000     0.286433000    20.892760000
  35    C       20.892760000     3.591244000     0.286433000
  36    C       12.321433000    15.212240000    20.478756000
  37    C       15.212240000    20.478756000    12.321433000
  38    C        9.608744000     9.194740000    18.338933000
  39    C        6.303933000     2.426256000    14.875260000
  40    C       18.338933000     9.608744000     9.194740000
  41    C       14.875260000     6.303933000     2.426256000
  42    C        9.194740000    18.338933000     9.608744000
  43    C        2.426256000    14.875260000     6.303933000
  44    C       23.783567000     8.857760000     8.443756000
  45    C        3.177240000    15.626244000    11.748567000
  46    C       15.626244000    11.748567000     3.177240000
  47    C        8.857760000     8.443756000    23.783567000
  48    C       11.748567000     3.177240000    15.626244000
  49    C       18.940683000    14.636967000    20.420988000
  50    C        8.619467000     0.888183000     9.666512000
  51    C        3.649012000     6.905683000    21.468033000
  52    C       21.468033000     3.649012000     6.905683000
  53    C       20.420988000    18.940683000    14.636967000
  54    C       14.636967000    20.420988000    18.940683000
  55    C        6.905683000    21.468033000     3.649012000
  56    C       20.654467000    11.146817000    14.403488000
  57    C       23.181817000    21.701512000     3.415533000
  58    C        3.415533000    23.181817000    21.701512000
  59    C       21.701512000     3.415533000    23.181817000
  60    C       11.146817000    14.403488000    20.654467000
  61    C       14.403488000    20.654467000    11.146817000
  62    C        9.433033000     8.385988000    17.164317000
  63    C        5.129317000     2.601967000    15.684012000
  64    C       17.164317000     9.433033000     8.385988000
  65    C       15.684012000     5.129317000     2.601967000
  66    C        8.385988000    17.164317000     9.433033000
  67    C        2.601967000    15.684012000     5.129317000
  68    C        0.888183000     9.666512000     8.619467000
  69    C        2.368488000    15.450533000    12.923183000
  70    C       15.450533000    12.923183000     2.368488000
  71    C        9.666512000     8.619467000     0.888183000
  72    C       12.923183000     2.368488000    15.450533000
  73    C       14.793422000    17.303923000    20.813329000
[...]
  293          H           0.166097        0.8339     0.83390
  294          H           0.167289        0.8327     0.83271
  295          H           0.166186        0.8338     0.83381
  296          H           0.166521        0.8335     0.83348
  297          H           0.166926        0.8331     0.83307
  298          H           0.166868        0.8331     0.83313
  299          H           0.165303        0.8347     0.83470
  300          H           0.165473        0.8345     0.83453
  301          H           0.165420        0.8346     0.83458
  302          H           0.165270        0.8347     0.83473
  303          H           0.166436        0.8336     0.83356
  304          H           0.165928        0.8341     0.83407
  305          H           0.165936        0.8341     0.83406
  306          H           0.167297        0.8327     0.83270
  307          H           0.165729        0.8343     0.83427
  308          H           0.165360        0.8346     0.83464
  309          H           0.167319        0.8327     0.83268
  310          H           0.166298        0.8337     0.83370
  311          H           0.167091        0.8329     0.83291
  312          H           0.166440        0.8336     0.83356
  313          H           0.168143        0.8319     0.83186
  314          H           0.168083        0.8319     0.83192
  315          H           0.167893        0.8321     0.83211
  316          H           0.167972        0.8320     0.83203
  317          H           0.168329        0.8317     0.83167
  318          H           0.167895        0.8321     0.83211
  319          H           0.168347        0.8317     0.83165
  320          H           0.167989        0.8320     0.83201
  321          H           0.167876        0.8321     0.83212
  322          H           0.168237        0.8318     0.83176
  323          H           0.168392        0.8316     0.83161
  324          H           0.168338        0.8317     0.83166
  325          H           0.168411        0.8316     0.83159
  326          H           0.168268        0.8317     0.83173
  327          H           0.168226        0.8318     0.83177
  328          H           0.168078        0.8319     0.83192
  329          H           0.168414        0.8316     0.83159
  330          H           0.168014        0.8320     0.83199
  331          H           0.168188        0.8318     0.83181
  332          H           0.168419        0.8316     0.83158
  333          H           0.168099        0.8319     0.83190
  334          H           0.167954        0.8320     0.83205
  335          H           0.168036        0.8320     0.83196
  336          H           0.167941        0.8321     0.83206
  337          H           0.169292        0.8307     0.83071
  338          H           0.170921        0.8291     0.82908
  339          H           0.168208        0.8318     0.83179
  340          H           0.169456        0.8305     0.83054
  341          H           0.172656        0.8273     0.82734
  342          H           0.168548        0.8315     0.83145
  343          H           0.172371        0.8276     0.82763
  344          H           0.167836        0.8322     0.83216
  345          H           0.168008        0.8320     0.83199
  346          H           0.171785        0.8282     0.82822
  347          H           0.171112        0.8289     0.82889
  348          H           0.171727        0.8283     0.82827
  349          H           0.171870        0.8281     0.82813
  350          H           0.170199        0.8298     0.82980
  351          H           0.172292        0.8277     0.82771
  352          H           0.168945        0.8311     0.83105
  353          H           0.172262        0.8277     0.82774
  354          H           0.169001        0.8310     0.83100
  355          H           0.169651        0.8303     0.83035
  356          H           0.172100        0.8279     0.82790
  357          H           0.170816        0.8292     0.82918
  358          H           0.168356        0.8316     0.83164
  359          H           0.170343        0.8297     0.82966
  360          H           0.168065        0.8319     0.83193


          ATOMIC ORBITAL ELECTRON POPULATIONS

     Atom    s        px        py        pz   
    1  N   1.54495   1.09928   1.21221   1.43532
    2  N   1.54551   1.21202   1.10105   1.43452
    3  N   1.54446   1.43701   1.09795   1.21233
    4  N   1.54496   1.21227   1.43616   1.09938
    5  N   1.54624   1.43181   1.10330   1.21161
    6  N   1.54462   1.21236   1.43697   1.09843
    7  N   1.54611   1.10282   1.21171   1.43224
    8  N   1.54430   1.21224   1.09750   1.43664
    9  N   1.54435   1.09766   1.43688   1.21227
   10  N   1.54586   1.21184   1.10208   1.43329
   11  N   1.54567   1.43364   1.21205   1.10130
   12  N   1.54593   1.10221   1.43301   1.21192
   13  N   1.54596   1.43277   1.21190   1.10219
   14  N   1.54530   1.21214   1.43452   1.10022
   15  N   1.54608   1.10282   1.21170   1.43242
   16  N   1.54479   1.09886   1.21222   1.43574
   17  N   1.54611   1.43236   1.10276   1.21178
   18  N   1.54476   1.43647   1.09875   1.21232
   19  N   1.54503   1.21215   1.43507   1.09946
   20  N   1.54605   1.10252   1.43247   1.21184
   21  N   1.54550   1.43471   1.21206   1.10105
   22  N   1.54453   1.21223   1.09819   1.43636
   23  N   1.54535   1.43521   1.21216   1.10056
   24  N   1.54440   1.09777   1.43652   1.21224
   25  C   1.07975   0.98174   1.07665   1.02115
   26  C   1.07935   1.07746   0.98447   1.02594
   27  C   1.08018   1.01681   0.98011   1.07546
   28  C   1.07981   1.07642   1.02094   0.98206
   29  C   1.07881   1.03176   0.98707   1.07883
   30  C   1.08008   1.07571   1.01793   0.98068
   31  C   1.07889   0.98666   1.07872   1.03100
   32  C   1.08028   1.07541   0.97936   1.01572
   33  C   1.08027   0.97962   1.01598   1.07537
   34  C   1.07909   1.07820   0.98579   1.02889
   35  C   1.07917   1.02748   1.07802   0.98473
   36  C   1.07902   0.98567   1.02923   1.07836
   37  C   1.07895   1.02992   1.07853   0.98593
   38  C   1.07945   1.07733   1.02439   0.98325
   39  C   1.07893   0.98653   1.07854   1.03051
   40  C   1.07990   0.98117   1.07632   1.01976
   41  C   1.07888   1.03088   0.98652   1.07874
   42  C   1.07993   1.01967   0.98143   1.07615
   43  C   1.07966   1.07687   1.02224   0.98228
   44  C   1.07892   0.98614   1.03038   1.07868
   45  C   1.07940   1.02552   1.07741   0.98429
   46  C   1.08011   1.07571   0.98021   1.01746
   47  C   1.07951   1.02414   1.07709   0.98359
   48  C   1.08019   0.97980   1.01660   1.07556
   49  C   1.07858   1.01956   1.03496   1.02462
   50  C   1.07929   1.03506   1.01691   1.02049
   51  C   1.07786   1.02958   1.02214   1.03567
   52  C   1.07853   1.03540   1.02538   1.01972
   53  C   1.08021   1.01447   1.01357   1.03453
   54  C   1.07804   1.03564   1.02851   1.02149
   55  C   1.08013   1.01391   1.03453   1.01500
   56  C   1.07773   1.03550   1.02267   1.03025
   57  C   1.07777   1.02252   1.03013   1.03564
   58  C   1.07977   1.03478   1.01521   1.01744
   59  C   1.07957   1.01825   1.03452   1.01592
   60  C   1.07983   1.01499   1.01677   1.03453
   61  C   1.07993   1.01601   1.03439   1.01460
   62  C   1.07906   1.03470   1.02148   1.01777
   63  C   1.08002   1.01428   1.03467   1.01576
   64  C   1.07839   1.02028   1.03516   1.02596
   65  C   1.08010   1.01515   1.01403   1.03447
   66  C   1.07833   1.02661   1.02046   1.03544
   67  C   1.07875   1.03490   1.02351   1.01891
   68  C   1.08004   1.01425   1.01538   1.03437
   69  C   1.07927   1.02073   1.03513   1.01704
   70  C   1.07798   1.03543   1.02173   1.02865
   71  C   1.07901   1.02229   1.03519   1.01794
   72  C   1.07786   1.02218   1.02942   1.03547
   73  C   1.06921   1.00844   1.03693   1.10966
   74  C   1.06709   1.04332   1.00955   1.13429
   75  C   1.06960   1.10423   1.00787   1.03558
   76  C   1.06834   1.03917   1.11857   1.00869
   77  C   1.06590   1.14952   1.01062   1.04719
   78  C   1.06911   1.03681   1.10938   1.00816
   79  C   1.06615   1.01036   1.04649   1.14646
   80  C   1.07027   1.03370   1.00752   1.09674
   81  C   1.06995   1.00769   1.10013   1.03449
   82  C   1.06641   1.04561   1.01002   1.14288
   83  C   1.06763   1.12911   1.04204   1.00952
   84  C   1.06686   1.01003   1.13762   1.04408
   85  C   1.06690   1.13800   1.04435   1.00998
   86  C   1.06847   1.03945   1.11906   1.00894
   87  C   1.06607   1.01039   1.04658   1.14707
   88  C   1.06940   1.00826   1.03624   1.10710
   89  C   1.06630   1.14469   1.01031   1.04603
   90  C   1.06883   1.11339   1.00830   1.03801
   91  C   1.06893   1.03799   1.11336   1.00856
   92  C   1.06671   1.01017   1.13992   1.04471
   93  C   1.06705   1.13417   1.04320   1.00957
   94  C   1.06981   1.03496   1.00792   1.10209
   95  C   1.06750   1.12874   1.04179   1.00929
   96  C   1.07003   1.00767   1.09956   1.03441
   97  C   1.06112   0.95658   1.00152   0.96335
   98  C   1.05811   1.02758   0.95938   0.97385
   99  C   1.06185   0.96064   0.95625   0.99479
  100  C   1.06018   1.00969   0.96645   0.95750
  101  C   1.05614   0.98101   0.96100   1.04514
  102  C   1.06131   0.99965   0.96243   0.95660
  103  C   1.05648   0.96064   1.04202   0.97981
  104  C   1.06268   0.98752   0.95538   0.95779
  105  C   1.06233   0.95577   0.95896   0.99063
  106  C   1.05696   1.03759   0.96025   0.97797
  107  C   1.05862   0.97226   1.02328   0.95876
  108  C   1.05768   0.95952   0.97552   1.03181
  109  C   1.05748   0.97629   1.03319   0.95972
  110  C   1.05987   1.01222   0.96778   0.95768
  111  C   1.05647   0.96069   1.04216   0.97978
  112  C   1.06148   0.95633   0.99842   0.96206
  113  C   1.05672   0.97895   0.96035   1.04001
  114  C   1.06069   0.96469   0.95713   1.00481
  115  C   1.06058   1.00600   0.96528   0.95713
  116  C   1.05732   0.95979   0.97684   1.03488
  117  C   1.05823   0.97339   1.02680   0.95919
  118  C   1.06209   0.99288   0.95594   0.95985
  119  C   1.05892   0.97091   1.02075   0.95857
  120  C   1.06234   0.95570   0.95898   0.99047
  121  C   1.06306   0.93602   0.90813   0.81698
  122  C   1.06228   0.91385   0.94066   0.81477
  123  C   1.06239   0.81428   0.94043   0.91401
  124  C   1.06230   0.91420   0.81434   0.94075
  125  C   1.06264   0.81662   0.93821   0.91037
  126  C   1.06225   0.91488   0.81398   0.94112
  127  C   1.06267   0.93814   0.91024   0.81649
  128  C   1.06276   0.91117   0.93824   0.81531
  129  C   1.06255   0.93944   0.81470   0.91272
  130  C   1.06237   0.91279   0.93998   0.81534
  131  C   1.06308   0.81758   0.90752   0.93582
  132  C   1.06291   0.93666   0.81724   0.90851
  133  C   1.06299   0.81755   0.90791   0.93622
  134  C   1.06309   0.90771   0.81734   0.93582
  135  C   1.06249   0.93907   0.91156   0.81601
  136  C   1.06296   0.93684   0.90914   0.81638
  137  C   1.06278   0.81686   0.93751   0.90945
  138  C   1.06236   0.81432   0.94060   0.91404
  139  C   1.06303   0.90840   0.81682   0.93634
  140  C   1.06301   0.93602   0.81771   0.90764
  141  C   1.06222   0.81456   0.91435   0.94104
  142  C   1.06278   0.91074   0.93796   0.81562
  143  C   1.06230   0.81471   0.91384   0.94057
  144  C   1.06274   0.93831   0.81532   0.91121
  145  C   1.05797   0.97586   0.96747   1.01451
  146  C   1.05830   0.96807   0.97417   1.01266
  147  C   1.05722   1.02247   0.97778   0.96788
  148  C   1.05772   0.96800   1.01807   0.97608
  149  C   1.05914   1.00445   0.97170   0.96805
  150  C   1.05734   0.96800   1.02161   0.97729
  151  C   1.05906   0.97208   0.96793   1.00525
  152  C   1.05721   0.96757   0.97816   1.02205
  153  C   1.05718   0.97807   1.02263   0.96778
  154  C   1.05870   0.96803   0.97300   1.00891
  155  C   1.05873   1.00748   0.96751   0.97343
  156  C   1.05891   0.97266   1.00613   0.96778
  157  C   1.05900   1.00515   0.96761   0.97250
  158  C   1.05835   0.96745   1.01094   0.97467
  159  C   1.05895   0.97225   0.96809   1.00645
  160  C   1.05777   0.97642   0.96756   1.01659
  161  C   1.05907   1.00492   0.97209   0.96784
  162  C   1.05756   1.01944   0.97670   0.96784
  163  C   1.05807   0.96746   1.01366   0.97555
  164  C   1.05909   0.97221   1.00433   0.96769
  165  C   1.05826   1.01315   0.96814   0.97425
  166  C   1.05742   0.96768   0.97739   1.02005
  167  C   1.05810   1.01447   0.96807   0.97478
  168  C   1.05731   0.97783   1.02120   0.96762
  169  C   1.03429   1.02288   1.15030   0.99916
  170  C   1.03444   1.15228   1.02618   0.99922
  171  C   1.03411   0.99935   1.02236   1.15094
  172  C   1.03419   1.15317   0.99948   1.02541
  173  C   1.03476   0.99890   1.02636   1.15049
  174  C   1.03406   1.15329   0.99956   1.02462
  175  C   1.03424   1.02558   1.15296   0.99938
  176  C   1.03442   1.14985   1.02337   0.99902
  177  C   1.03392   1.02316   0.99960   1.15284
  178  C   1.03458   1.15183   1.02670   0.99904
  179  C   1.03455   0.99892   1.14960   1.02396
  180  C   1.03456   1.02642   0.99910   1.15177
  181  C   1.03460   0.99893   1.14993   1.02465
  182  C   1.03479   1.14983   0.99876   1.02590
  183  C   1.03419   1.02555   1.15328   0.99947
  184  C   1.03414   1.02269   1.15107   0.99934
  185  C   1.03475   0.99885   1.02586   1.15011
  186  C   1.03410   0.99935   1.02289   1.15141
  187  C   1.03466   1.15023   0.99888   1.02547
  188  C   1.03468   1.02665   0.99895   1.15121
  189  C   1.03397   0.99964   1.15317   1.02384
  190  C   1.03454   1.14984   1.02409   0.99899
  191  C   1.03401   0.99958   1.15261   1.02345
  192  C   1.03401   1.02313   0.99948   1.15224
  193  C   1.05932   0.96066   0.98809   1.02309
  194  C   1.05874   0.99085   0.96222   1.03453
  195  C   1.05961   1.01712   0.95996   0.98639
  196  C   1.05921   0.98851   1.02519   0.96102
  197  C   1.05820   1.04487   0.96357   0.99348
  198  C   1.05948   0.98705   1.01967   0.96032
  199  C   1.05830   0.96330   0.99315   1.04320
  200  C   1.05977   0.98576   0.95949   1.01413
  201  C   1.05972   0.95970   1.01523   0.98599
  202  C   1.05846   0.99229   0.96288   1.04001
  203  C   1.05873   1.03473   0.99108   0.96215
  204  C   1.05851   0.96276   1.03894   0.99208
  205  C   1.05848   1.03967   0.99232   0.96279
  206  C   1.05903   0.98958   1.02884   0.96137
  207  C   1.05831   0.96331   0.99300   1.04288
  208  C   1.05943   0.96041   0.98754   1.02097
  209  C   1.05832   1.04261   0.96320   0.99302
  210  C   1.05935   1.02247   0.96061   0.98784
  211  C   1.05923   0.98864   1.02510   0.96089
  212  C   1.05843   0.96297   1.04075   0.99261
  213  C   1.05875   1.03417   0.99076   0.96220
  214  C   1.05961   0.98650   0.95996   1.01726
  215  C   1.05890   1.03124   0.99001   0.96182
  216  C   1.05969   0.95972   1.01573   0.98616
  217  C   1.05463   0.97240   0.81071   0.99351
  218  C   1.05930   0.80366   0.97325   0.96304
  219  C   1.05349   1.00197   0.97274   0.81212
  220  C   1.05627   0.80810   0.98332   0.97296
  221  C   1.06233   0.94239   0.97327   0.79950
  222  C   1.05448   0.81068   0.99534   0.97284
  223  C   1.06172   0.97329   0.80030   0.94653
  224  C   1.05209   0.81424   0.97249   1.01118
  225  C   1.05273   0.97260   1.00697   0.81329
  226  C   1.06098   0.80124   0.97339   0.95180
  227  C   1.05838   0.96828   0.80522   0.97272
  228  C   1.06003   0.97289   0.95737   0.80289
  229  C   1.06010   0.95692   0.80272   0.97293
  230  C   1.05643   0.80805   0.98136   0.97255
  231  C   1.06183   0.97333   0.80016   0.94594
  232  C   1.05412   0.97245   0.81141   0.99708
  233  C   1.06139   0.94863   0.97318   0.80082
  234  C   1.05525   0.99028   0.97295   0.80949
  235  C   1.05532   0.80961   0.98894   0.97254
  236  C   1.06050   0.97289   0.95415   0.80223
  237  C   1.05928   0.96321   0.80371   0.97326
  238  C   1.05313   0.81281   0.97246   1.00392
  239  C   1.05823   0.97013   0.80527   0.97310
  240  C   1.05263   0.97253   1.00755   0.81346
  241  C   1.05146   0.89507   0.96927   0.95253
  242  C   1.05180   0.96800   0.89541   0.95240
  243  C   1.05221   0.94858   0.89097   0.96815
  244  C   1.05207   0.96803   0.95019   0.89288
  245  C   1.05131   0.95551   0.89897   0.96843
  246  C   1.05226   0.96796   0.94875   0.89122
  247  C   1.05128   0.89884   0.96852   0.95541
  248  C   1.05199   0.96877   0.89145   0.94918
  249  C   1.05215   0.89098   0.94863   0.96841
  250  C   1.05158   0.96815   0.89714   0.95391
  251  C   1.05108   0.95530   0.96928   0.89832
  252  C   1.05121   0.89851   0.95527   0.96890
  253  C   1.05103   0.95602   0.96911   0.89926
  254  C   1.05123   0.96933   0.95408   0.89683
  255  C   1.05146   0.89810   0.96825   0.95474
  256  C   1.05165   0.89398   0.96903   0.95145
  257  C   1.05121   0.95563   0.89902   0.96870
  258  C   1.05205   0.94989   0.89249   0.96816
  259  C   1.05140   0.96922   0.95294   0.89559
  260  C   1.05104   0.89948   0.95617   0.96913
  261  C   1.05189   0.95204   0.96790   0.89504
  262  C   1.05193   0.96872   0.89222   0.94984
  263  C   1.05191   0.95156   0.96800   0.89444
  264  C   1.05196   0.89184   0.94950   0.96871
  265  C   1.06305   0.97241   0.95710   0.99326
  266  C   1.06345   0.95394   0.97045   0.98283
  267  C   1.06245   0.99945   0.97398   0.95856
  268  C   1.06291   0.95641   0.99171   0.97238
  269  C   1.06411   0.97294   0.96819   0.95136
  270  C   1.06256   0.95789   0.99711   0.97354
  271  C   1.06408   0.96849   0.95169   0.97428
  272  C   1.06242   0.95932   0.97441   1.00194
  273  C   1.06240   0.97429   1.00106   0.95906
  274  C   1.06381   0.95245   0.96929   0.97748
  275  C   1.06376   0.98203   0.95400   0.96998
  276  C   1.06389   0.96926   0.97834   0.95295
  277  C   1.06401   0.97741   0.95267   0.96902
  278  C   1.06342   0.95556   0.98771   0.97120
  279  C   1.06397   0.96867   0.95181   0.97484
  280  C   1.06288   0.97290   0.95764   0.99531
  281  C   1.06408   0.97481   0.96856   0.95187
  282  C   1.06280   0.99417   0.97289   0.95705
  283  C   1.06318   0.95650   0.99123   0.97200
  284  C   1.06406   0.96881   0.97639   0.95244
  285  C   1.06341   0.98321   0.95405   0.97057
  286  C   1.06257   0.95862   0.97377   0.99910
  287  C   1.06325   0.98605   0.95485   0.97115
  288  C   1.06250   0.97409   1.00048   0.95893
  289  H   0.83452
  290  H   0.83286
  291  H   0.83286
  292  H   0.83269
  293  H   0.83390
  294  H   0.83271
  295  H   0.83381
  296  H   0.83348
  297  H   0.83307
  298  H   0.83313
  299  H   0.83470
  300  H   0.83453
  301  H   0.83458
  302  H   0.83473
  303  H   0.83356
  304  H   0.83407
  305  H   0.83406
  306  H   0.83270
  307  H   0.83427
  308  H   0.83464
  309  H   0.83268
  310  H   0.83370
  311  H   0.83291
  312  H   0.83356
  313  H   0.83186
  314  H   0.83192
  315  H   0.83211
  316  H   0.83203
  317  H   0.83167
  318  H   0.83211
  319  H   0.83165
  320  H   0.83201
  321  H   0.83212
  322  H   0.83176
  323  H   0.83161
  324  H   0.83166
  325  H   0.83159
  326  H   0.83173
  327  H   0.83177
  328  H   0.83192
  329  H   0.83159
  330  H   0.83199
  331  H   0.83181
  332  H   0.83158
  333  H   0.83190
  334  H   0.83205
  335  H   0.83196
  336  H   0.83206
  337  H   0.83071
  338  H   0.82908
  339  H   0.83179
  340  H   0.83054
  341  H   0.82734
  342  H   0.83145
  343  H   0.82763
  344  H   0.83216
  345  H   0.83199
  346  H   0.82822
  347  H   0.82889
  348  H   0.82827
  349  H   0.82813
  350  H   0.82980
  351  H   0.82771
  352  H   0.83105
  353  H   0.82774
  354  H   0.83100
  355  H   0.83035
  356  H   0.82790
  357  H   0.82918
  358  H   0.83164
  359  H   0.82966
  360  H   0.83193

 **********************
 *                    *
 * JOB ENDED NORMALLY *
 *                    *
 **********************



 TOTAL JOB TIME:           441.33 SECONDS

 == MOPAC DONE ==
