 *******************************************************************************
 **                                                                           **
 **                              MOPAC v22.1.0                                **
 **                                                                           **
 *******************************************************************************
 **          Digital Object Identifier (DOI): 10.5281/zenodo.6511958          **
 **    Visit the DOI location for information on how to cite this program.    **
 *******************************************************************************

                              PM7 CALCULATION RESULTS

 *******************************************************************************
 *  CALCULATION DONE:                                Wed Jan 31 14:54:31 2024  *
 *  PM7        - The PM7 Hamiltonian to be used
 *  NOOPT      - DO NOT OPTIMIZE ANY COORDINATES
 *
 *
 *
 *                 CHARGE ON SYSTEM = 0
 *
 *
 *
 *  T=         - A TIME OF 172800.0 SECONDS REQUESTED
 *  DUMP=N     - RESTART FILE WRITTEN EVERY 7200.0 SECONDS REQUESTED
 *******************************************************************************
PM7 CHARGE=0 NOOPT


   ATOM   CHEMICAL          X               Y               Z
  NUMBER   SYMBOL      (ANGSTROMS)     (ANGSTROMS)     (ANGSTROMS)

     1       N         17.16672400     16.79123200     21.00829600   
     2       N         10.77373200     23.18422400      9.07920400   
     3       N          3.06170400      5.13172400     19.31376800   
     4       N         19.31376800      3.06170400      5.13172400   
     5       N         21.00829600     17.16672400     16.79123200   
     6       N         16.79123200     21.00829600     17.16672400   
     7       N          5.13172400     19.31376800      3.06170400   
     8       N         22.80873200     12.92077600     14.99079600   
     9       N          0.88577600     21.11420400      1.26126800   
    10       N          1.26126800      0.88577600     21.11420400   
    11       N         21.11420400      1.26126800      0.88577600   
    12       N         12.92077600     14.99079600     22.80873200   
    13       N         14.99079600     22.80873200     12.92077600   
    14       N          7.27876800      8.97329600     18.93827600   
    15       N          6.90327600      4.75623200     15.09670400   
    16       N         18.93827600      7.27876800      8.97329600   
    17       N         15.09670400      6.90327600      4.75623200   
    18       N          8.97329600     18.93827600      7.27876800   
    19       N          4.75623200     15.09670400      6.90327600   
    20       N         23.18422400      9.07920400     10.77373200   
    21       N          2.95579600     13.29626800     11.14922400   
    22       N         13.29626800     11.14922400      2.95579600   
    23       N          9.07920400     10.77373200     23.18422400   
    24       N         11.14922400      2.95579600     13.29626800   
    25       C         17.76606700     14.46125600     21.22974000   
    26       C          8.44375600     23.78356700      8.85776000   
    27       C          2.84026000      5.73106700     21.64374400   
    28       C         21.64374400      2.84026000      5.73106700   
    29       C         21.22974000     17.76606700     14.46125600   
    30       C         14.46125600     21.22974000     17.76606700   
    31       C          5.73106700     21.64374400      2.84026000   
    32       C         20.47875600     12.32143300     15.21224000   
    33       C          0.28643300     20.89276000      3.59124400   
    34       C          3.59124400      0.28643300     20.89276000   
    35       C         20.89276000      3.59124400      0.28643300   
    36       C         12.32143300     15.21224000     20.47875600   
    37       C         15.21224000     20.47875600     12.32143300   
    38       C          9.60874400      9.19474000     18.33893300   
    39       C          6.30393300      2.42625600     14.87526000   
    40       C         18.33893300      9.60874400      9.19474000   
    41       C         14.87526000      6.30393300      2.42625600   
    42       C          9.19474000     18.33893300      9.60874400   
    43       C          2.42625600     14.87526000      6.30393300   
    44       C         23.78356700      8.85776000      8.44375600   
    45       C          3.17724000     15.62624400     11.74856700   
    46       C         15.62624400     11.74856700      3.17724000   
    47       C          8.85776000      8.44375600     23.78356700   
    48       C         11.74856700      3.17724000     15.62624400   
    49       C         18.94068300     14.63696700     20.42098800   
    50       C          8.61946700      0.88818300      9.66651200   
    51       C          3.64901200      6.90568300     21.46803300   
    52       C         21.46803300      3.64901200      6.90568300   
    53       C         20.42098800     18.94068300     14.63696700   
    54       C         14.63696700     20.42098800     18.94068300   
    55       C          6.90568300     21.46803300      3.64901200   
    56       C         20.65446700     11.14681700     14.40348800   
    57       C         23.18181700     21.70151200      3.41553300   
    58       C          3.41553300     23.18181700     21.70151200   
    59       C         21.70151200      3.41553300     23.18181700   
    60       C         11.14681700     14.40348800     20.65446700   
    61       C         14.40348800     20.65446700     11.14681700   
    62       C          9.43303300      8.38598800     17.16431700   
    63       C          5.12931700      2.60196700     15.68401200   
    64       C         17.16431700      9.43303300      8.38598800   
    65       C         15.68401200      5.12931700      2.60196700   
    66       C          8.38598800     17.16431700      9.43303300   
    67       C          2.60196700     15.68401200      5.12931700   
    68       C          0.88818300      9.66651200      8.61946700   
    69       C          2.36848800     15.45053300     12.92318300   
    70       C         15.45053300     12.92318300      2.36848800   
    71       C          9.66651200      8.61946700      0.88818300   
    72       C         12.92318300      2.36848800     15.45053300   
    73       C         14.79342200     17.30392300     20.81332900   
    74       C         11.28642300     20.81092200      9.27417100   
    75       C          3.25667100      2.75842200     18.80107700   
    76       C         18.80107700      3.25667100      2.75842200   
    77       C         20.81332900     14.79342200     17.30392300   
    78       C         17.30392300     20.81332900     14.79342200   
    79       C          2.75842200     18.80107700      3.25667100   
    80       C         23.32142300     15.29407800     14.79582900   
    81       C          3.25907800     21.30917100      0.74857700   
    82       C          0.74857700      3.25907800     21.30917100   
    83       C         21.30917100      0.74857700      3.25907800   
    84       C         15.29407800     14.79582900     23.32142300   
    85       C         14.79582900     23.32142300     15.29407800   
    86       C          6.76607700      8.77832900     21.31157800   
    87       C          9.27657800      5.26892300     15.29167100   
    88       C         21.31157800      6.76607700      8.77832900   
    89       C         15.29167100      9.27657800      5.26892300   
    90       C          8.77832900     21.31157800      6.76607700   
    91       C          5.26892300     15.29167100      9.27657800   
    92       C         20.81092200      9.27417100     11.28642300   
    93       C          2.76082900     12.78357700      8.77592200   
    94       C         12.78357700      8.77592200      2.76082900   
    95       C          9.27417100     11.28642300     20.81092200   
    96       C          8.77592200      2.76082900     12.78357700   
    97       C         15.55884800     15.38313700     22.14199300   
    98       C          9.36563700     21.57634800      7.94550700   
    99       C          1.92800700      3.52384800     20.72186300   
   100       C         20.72186300      1.92800700      3.52384800   
   101       C         22.14199300     15.55884800     15.38313700   
   102       C         15.38313700     22.14199300     15.55884800   
   103       C          3.52384800     20.72186300      1.92800700   
   104       C         21.40063700     14.52865200     16.12449300   
   105       C          2.49365200     19.98050700      2.66936300   
   106       C          2.66936300      2.49365200     19.98050700   
   107       C         19.98050700      2.66936300      2.49365200   
   108       C         14.52865200     16.12449300     21.40063700   
   109       C         16.12449300     21.40063700     14.52865200   
   110       C          8.68686300     10.10699300     20.54615200   
   111       C          8.51115200      3.34813700     13.96300700   
   112       C         20.54615200      8.68686300     10.10699300   
   113       C         13.96300700      8.51115200      3.34813700   
   114       C         10.10699300     20.54615200      8.68686300   
   115       C          3.34813700     13.96300700      8.51115200   
   116       C         21.57634800      7.94550700      9.36563700   
   117       C          4.08949300     14.70436300      9.54134800   
   118       C         14.70436300      9.54134800      4.08949300   
   119       C          7.94550700      9.36563700     21.57634800   
   120       C          9.54134800      4.08949300     14.70436300   
   121       C         19.21748800     19.98050700     17.98510400   
   122       C         13.96300700      1.16498800     12.10239600   
   123       C          6.08489600      7.18248800     16.12449300   
   124       C         16.12449300      6.08489600      7.18248800   
   125       C         17.98510400     19.21748800     19.98050700   
   126       C         19.98050700     17.98510400     19.21748800   
   127       C          7.18248800     16.12449300      6.08489600   
   128       C          1.92800700     10.87001200     11.96760400   
   129       C         22.90501200      0.06739600     22.14199300   
   130       C         22.14199300     22.90501200      0.06739600   
   131       C          0.06739600     22.14199300     22.90501200   
   132       C         10.87001200     11.96760400      1.92800700   
   133       C         11.96760400      1.92800700     10.87001200   
   134       C          4.08949300      5.95010400     16.88751200   
   135       C          4.85251200      7.94550700     18.11989600   
   136       C         16.88751200      4.08949300      5.95010400   
   137       C         18.11989600      4.85251200      7.94550700   
   138       C          5.95010400     16.88751200      4.08949300   
   139       C          7.94550700     18.11989600      4.85251200   
   140       C          1.16498800     12.10239600     13.96300700   
   141       C         24.00260400     10.10699300     13.19998800   
   142       C         10.10699300     13.19998800     24.00260400   
   143       C         12.10239600     13.96300700      1.16498800   
   144       C         13.19998800     24.00260400     10.10699300   
   145       C         18.45687600     16.94528000     20.56300100   
   146       C         10.92778000      0.40437600      9.52449900   
   147       C          3.50699900      6.42187600     19.15972000   
   148       C         19.15972000      3.50699900      6.42187600   
   149       C         20.56300100     18.45687600     16.94528000   
   150       C         16.94528000     20.56300100     18.45687600   
   151       C          6.42187600     19.15972000      3.50699900   
   152       C         22.96278000     11.63062400     14.54550100   
   153       C         23.66562400     21.55949900      1.10722000   
   154       C          1.10722000     23.66562400     21.55949900   
   155       C         21.55949900      1.10722000     23.66562400   
   156       C         11.63062400     14.54550100     22.96278000   
   157       C         14.54550100     22.96278000     11.63062400   
   158       C          7.12472000      8.52800100     17.64812400   
   159       C          5.61312400      4.91028000     15.54199900   
   160       C         17.64812400      7.12472000      8.52800100   
   161       C         15.54199900      5.61312400      4.91028000   
   162       C          8.52800100     17.64812400      7.12472000   
   163       C          4.91028000     15.54199900      5.61312400   
   164       C          0.40437600      9.52449900     10.92778000   
   165       C          2.51050100     13.14222000     12.43937600   
   166       C         13.14222000     12.43937600      2.51050100   
   167       C          9.52449900     10.92778000      0.40437600   
   168       C         12.43937600      2.51050100     13.14222000   
   169       C         16.54812500     19.02011400     20.18991600   
   170       C         13.00261400     22.56562500      9.89758400   
   171       C          3.88008400      4.51312500     17.08488600   
   172       C         17.08488600      3.88008400      4.51312500   
   173       C         20.18991600     16.54812500     19.02011400   
   174       C         19.02011400     20.18991600     16.54812500   
   175       C          4.51312500     17.08488600      3.88008400   
   176       C          0.96761400     13.53937500     14.17241600   
   177       C          1.50437500     21.93258400     23.10238600   
   178       C         23.10238600      1.50437500     21.93258400   
   179       C         21.93258400     23.10238600      1.50437500   
   180       C         13.53937500     14.17241600      0.96761400   
   181       C         14.17241600      0.96761400     13.53937500   
   182       C          5.04988600      8.15491600     19.55687500   
   183       C          7.52187500      6.98511400     15.91508400   
   184       C         19.55687500      5.04988600      8.15491600   
   185       C         15.91508400      7.52187500      6.98511400   
   186       C          8.15491600     19.55687500      5.04988600   
   187       C          6.98511400     15.91508400      7.52187500   
   188       C         22.56562500      9.89758400     13.00261400   
   189       C          2.13741600     11.06738600     10.53062500   
   190       C         11.06738600     10.53062500      2.13741600   
   191       C          9.89758400     13.00261400     22.56562500   
   192       C         10.53062500      2.13741600     11.06738600   
   193       C         23.22514300     21.99035200     23.90873100   
   194       C         15.97285200      5.17264300      6.17876900   
   195       C          0.16126900     11.19014300     14.11464800   
   196       C         14.11464800      0.16126900     11.19014300   
   197       C         23.90873100     23.22514300     21.99035200   
   198       C         21.99035200     23.90873100     23.22514300   
   199       C         11.19014300     14.11464800      0.16126900   
   200       C          3.93785200      6.86235700     17.89123100   
   201       C         18.89735700     18.21376900     20.13214800   
   202       C         20.13214800     18.89735700     18.21376900   
   203       C         18.21376900     20.13214800     18.89735700   
   204       C          6.86235700     17.89123100      3.93785200   
   205       C         17.89123100      3.93785200      6.86235700   
   206       C          2.07964800     11.87373100     12.87985700   
   207       C          0.84485700      9.95535200     12.19626900   
   208       C         12.87985700      2.07964800     11.87373100   
   209       C         12.19626900      0.84485700      9.95535200   
   210       C         11.87373100     12.87985700      2.07964800   
   211       C          9.95535200     12.19626900      0.84485700   
   212       C          5.17264300      6.17876900     15.97285200   
   213       C          5.85623100      8.09714800     17.20764300   
   214       C          8.09714800     17.20764300      5.85623100   
   215       C          6.17876900     15.97285200      5.17264300   
   216       C         17.20764300      5.85623100      8.09714800   
   217       C         16.16300500     17.81420700     20.72908400   
   218       C         11.79670700     22.18050500      9.35841600   
   219       C          3.34091600      4.12800500     18.29079300   
   220       C         18.29079300      3.34091600      4.12800500   
   221       C         20.72908400     16.16300500     17.81420700   
   222       C         17.81420700     20.72908400     16.16300500   
   223       C          4.12800500     18.29079300      3.34091600   
   224       C         23.83170700     13.92449500     14.71158400   
   225       C          1.88949500     21.39341600      0.23829300   
   226       C          0.23829300      1.88949500     21.39341600   
   227       C         21.39341600      0.23829300      1.88949500   
   228       C         13.92449500     14.71158400     23.83170700   
   229       C         14.71158400     23.83170700     13.92449500   
   230       C          6.25579300      8.69408400     19.94199500   
   231       C          7.90699500      5.77920700     15.37591600   
   232       C         19.94199500      6.25579300      8.69408400   
   233       C         15.37591600      7.90699500      5.77920700   
   234       C          8.69408400     19.94199500      6.25579300   
   235       C          5.77920700     15.37591600      7.90699500   
   236       C         22.18050500      9.35841600     11.79670700   
   237       C          2.67658400     12.27329300     10.14550500   
   238       C         12.27329300     10.14550500      2.67658400   
   239       C          9.35841600     11.79670700     22.18050500   
   240       C         10.14550500      2.67658400     12.27329300   
   241       C         19.29932600     15.89101400     20.03346100   
   242       C          9.87351400      1.24682600     10.05403900   
   243       C          4.03653900      7.26432600     20.21398600   
   244       C         20.21398600      4.03653900      7.26432600   
   245       C         20.03346100     19.29932600     15.89101400   
   246       C         15.89101400     20.03346100     19.29932600   
   247       C          7.26432600     20.21398600      4.03653900   
   248       C         21.90851400     10.78817400     14.01596100   
   249       C         22.82317400     22.08903900      2.16148600   
   250       C          2.16148600     22.82317400     22.08903900   
   251       C         22.08903900      2.16148600     22.82317400   
   252       C         10.78817400     14.01596100     21.90851400   
   253       C         14.01596100     21.90851400     10.78817400   
   254       C          8.17898600      7.99846100     16.80567400   
   255       C          4.77067400      3.85601400     16.07153900   
   256       C         16.80567400      8.17898600      7.99846100   
   257       C         16.07153900      4.77067400      3.85601400   
   258       C          7.99846100     16.80567400      8.17898600   
   259       C          3.85601400     16.07153900      4.77067400   
   260       C          1.24682600     10.05403900      9.87351400   
   261       C          1.98096100     14.19648600     13.28182600   
   262       C         14.19648600     13.28182600      1.98096100   
   263       C         10.05403900      9.87351400      1.24682600   
   264       C         13.28182600      1.98096100     14.19648600   
   265       C         16.88029100     15.47701000     21.48728900   
   266       C          9.45951000     22.89779100      8.60021100   
   267       C          2.58271100      4.84529100     20.62799000   
   268       C         20.62799000      2.58271100      4.84529100   
   269       C         21.48728900     16.88029100     15.47701000   
   270       C         15.47701000     21.48728900     16.88029100   
   271       C          4.84529100     20.62799000      2.58271100   
   272       C         21.49451000     13.20720900     15.46978900   
   273       C          1.17220900     20.63521100      2.57549000   
   274       C          2.57549000      1.17220900     20.63521100   
   275       C         20.63521100      2.57549000      1.17220900   
   276       C         13.20720900     15.46978900     21.49451000   
   277       C         15.46978900     21.49451000     13.20720900   
   278       C          8.59299000      9.45228900     19.22470900   
   279       C          7.18970900      3.44201000     14.61771100   
   280       C         19.22470900      8.59299000      9.45228900   
   281       C         14.61771100      7.18970900      3.44201000   
   282       C          9.45228900     19.22470900      8.59299000   
   283       C          3.44201000     14.61771100      7.18970900   
   284       C         22.89779100      8.60021100      9.45951000   
   285       C          3.43478900     14.61049000     10.86279100   
   286       C         14.61049000     10.86279100      3.43478900   
   287       C          8.60021100      9.45951000     22.89779100   
   288       C         10.86279100      3.43478900     14.61049000   
   289       H         13.45031600     21.59801100     17.55184400   
   290       H         15.58051100     19.46781600     12.53565600   
   291       H          6.51815600      1.41531600     14.50698900   
   292       H         14.50698900      6.51815600      1.41531600   
   293       H         17.55184400     13.45031600     21.59801100   
   294       H         21.59801100     17.55184400     13.45031600   
   295       H          1.41531600     14.50698900      6.51815600   
   296       H          3.54551100     16.63718400     11.53434400   
   297       H          4.60218400      0.50065600     20.52448900   
   298       H         20.52448900      4.60218400      0.50065600   
   299       H          0.50065600     20.52448900      4.60218400   
   300       H         16.63718400     11.53434400      3.54551100   
   301       H         11.53434400      3.54551100     16.63718400   
   302       H          2.47198900      5.51684400     22.65468400   
   303       H         10.61968400      9.56301100     18.55315600   
   304       H         22.65468400      2.47198900      5.51684400   
   305       H         18.55315600     10.61968400      9.56301100   
   306       H          5.51684400     22.65468400      2.47198900   
   307       H          9.56301100     18.55315600     10.61968400   
   308       H         19.46781600     12.53565600     15.58051100   
   309       H         23.56934400      8.48948900      7.43281600   
   310       H          8.48948900      7.43281600     23.56934400   
   311       H         12.53565600     15.58051100     19.46781600   
   312       H          7.43281600     23.56934400      8.48948900   
   313       H         13.74878400     20.12733400     19.49910700   
   314       H         14.10983400     19.76628400     10.58839300   
   315       H          4.57089300      1.71378400     15.97766600   
   316       H         15.97766600      4.57089300      1.71378400   
   317       H         19.49910700     13.74878400     20.12733400   
   318       H         20.12733400     19.49910700     13.74878400   
   319       H          1.71378400     15.97766600      4.57089300   
   320       H          2.07483400     16.33871600     13.48160700   
   321       H          4.30371600     22.62339300     21.99516600   
   322       H         21.99516600      4.30371600     22.62339300   
   323       H         22.62339300     21.99516600      4.30371600   
   324       H         16.33871600     13.48160700      2.07483400   
   325       H         13.48160700      2.07483400     16.33871600   
   326       H          3.94266600      7.46410700     22.35621600   
   327       H         10.32121600      8.09233400     16.60589300   
   328       H         22.35621600      3.94266600      7.46410700   
   329       H         16.60589300     10.32121600      8.09233400   
   330       H          7.46410700     22.35621600      3.94266600   
   331       H          8.09233400     16.60589300     10.32121600   
   332       H         19.76628400     10.58839300     14.10983400   
   333       H          1.44660700      9.96016600      7.73128400   
   334       H          9.96016600      7.73128400      1.44660700   
   335       H         10.58839300     14.10983400     19.76628400   
   336       H          7.73128400      1.44660700      9.96016600   
   337       H         14.00392600     17.89845200     20.33674300   
   338       H         11.88095200     20.02142600      9.75075700   
   339       H          3.73325700      1.96892600     18.20654800   
   340       H         18.20654800      3.73325700      1.96892600   
   341       H         20.33674300     14.00392600     17.89845200   
   342       H         17.89845200     20.33674300     14.00392600   
   343       H          1.96892600     18.20654800      3.73325700   
   344       H         23.91595200     16.08357400     14.31924300   
   345       H          4.04857400     21.78575700      0.15404800   
   346       H          0.15404800      4.04857400     21.78575700   
   347       H         21.78575700      0.15404800      4.04857400   
   348       H         16.08357400     14.31924300     23.91595200   
   349       H         14.31924300     23.91595200     16.08357400   
   350       H          6.17154800      8.30174300     22.10107400   
   351       H         10.06607400      5.86345200     15.76825700   
   352       H         22.10107400      6.17154800      8.30174300   
   353       H         15.76825700     10.06607400      5.86345200   
   354       H          8.30174300     22.10107400      6.17154800   
   355       H          5.86345200     15.76825700     10.06607400   
   356       H         20.02142600      9.75075700     11.88095200   
   357       H          2.28424300     12.18904800      7.98642600   
   358       H         12.18904800      7.98642600      2.28424300   
   359       H          9.75075700     11.88095200     20.02142600   
   360       H          7.98642600      2.28424300     12.18904800   
   361      Tv         24.07000000      0.00000000      0.00000000   
   362      Tv          0.00000000     24.07000000      0.00000000   
   363      Tv          0.00000000      0.00000000     24.07000000   


                   THE SYSTEM IS A SOLID


                UNIT CELL TRANSLATION VECTORS

              X                Y              Z
    T1 =    24.0700000      0.0000000      0.0000000
    T2 =     0.0000000     24.0700000      0.0000000
    T3 =     0.0000000      0.0000000     24.0700000


          CARTESIAN COORDINATES 

    NO.       ATOM           X           Y           Z

     1         N         17.1667     16.7912     21.0083
     2         N         10.7737     23.1842      9.0792
     3         N          3.0617      5.1317     19.3138
     4         N         19.3138      3.0617      5.1317
     5         N         21.0083     17.1667     16.7912
     6         N         16.7912     21.0083     17.1667
     7         N          5.1317     19.3138      3.0617
     8         N         22.8087     12.9208     14.9908
     9         N          0.8858     21.1142      1.2613
    10         N          1.2613      0.8858     21.1142
    11         N         21.1142      1.2613      0.8858
    12         N         12.9208     14.9908     22.8087
    13         N         14.9908     22.8087     12.9208
    14         N          7.2788      8.9733     18.9383
    15         N          6.9033      4.7562     15.0967
    16         N         18.9383      7.2788      8.9733
    17         N         15.0967      6.9033      4.7562
    18         N          8.9733     18.9383      7.2788
    19         N          4.7562     15.0967      6.9033
    20         N         23.1842      9.0792     10.7737
    21         N          2.9558     13.2963     11.1492
    22         N         13.2963     11.1492      2.9558
    23         N          9.0792     10.7737     23.1842
    24         N         11.1492      2.9558     13.2963
    25         C         17.7661     14.4613     21.2297
    26         C          8.4438     23.7836      8.8578
    27         C          2.8403      5.7311     21.6437
    28         C         21.6437      2.8403      5.7311
    29         C         21.2297     17.7661     14.4613
    30         C         14.4613     21.2297     17.7661
    31         C          5.7311     21.6437      2.8403
    32         C         20.4788     12.3214     15.2122
    33         C          0.2864     20.8928      3.5912
    34         C          3.5912      0.2864     20.8928
    35         C         20.8928      3.5912      0.2864
    36         C         12.3214     15.2122     20.4788
    37         C         15.2122     20.4788     12.3214
    38         C          9.6087      9.1947     18.3389
    39         C          6.3039      2.4263     14.8753
    40         C         18.3389      9.6087      9.1947
    41         C         14.8753      6.3039      2.4263
    42         C          9.1947     18.3389      9.6087
    43         C          2.4263     14.8753      6.3039
    44         C         23.7836      8.8578      8.4438
    45         C          3.1772     15.6262     11.7486
    46         C         15.6262     11.7486      3.1772
    47         C          8.8578      8.4438     23.7836
    48         C         11.7486      3.1772     15.6262
    49         C         18.9407     14.6370     20.4210
    50         C          8.6195      0.8882      9.6665
    51         C          3.6490      6.9057     21.4680
    52         C         21.4680      3.6490      6.9057
    53         C         20.4210     18.9407     14.6370
    54         C         14.6370     20.4210     18.9407
    55         C          6.9057     21.4680      3.6490
    56         C         20.6545     11.1468     14.4035
    57         C         23.1818     21.7015      3.4155
    58         C          3.4155     23.1818     21.7015
    59         C         21.7015      3.4155     23.1818
    60         C         11.1468     14.4035     20.6545
    61         C         14.4035     20.6545     11.1468
    62         C          9.4330      8.3860     17.1643
    63         C          5.1293      2.6020     15.6840
    64         C         17.1643      9.4330      8.3860
    65         C         15.6840      5.1293      2.6020
    66         C          8.3860     17.1643      9.4330
    67         C          2.6020     15.6840      5.1293
    68         C          0.8882      9.6665      8.6195
    69         C          2.3685     15.4505     12.9232
    70         C         15.4505     12.9232      2.3685
    71         C          9.6665      8.6195      0.8882
    72         C         12.9232      2.3685     15.4505
    73         C         14.7934     17.3039     20.8133
    74         C         11.2864     20.8109      9.2742
    75         C          3.2567      2.7584     18.8011
    76         C         18.8011      3.2567      2.7584
    77         C         20.8133     14.7934     17.3039
    78         C         17.3039     20.8133     14.7934
    79         C          2.7584     18.8011      3.2567
    80         C         23.3214     15.2941     14.7958
    81         C          3.2591     21.3092      0.7486
    82         C          0.7486      3.2591     21.3092
    83         C         21.3092      0.7486      3.2591
    84         C         15.2941     14.7958     23.3214
    85         C         14.7958     23.3214     15.2941
    86         C          6.7661      8.7783     21.3116
    87         C          9.2766      5.2689     15.2917
    88         C         21.3116      6.7661      8.7783
    89         C         15.2917      9.2766      5.2689
    90         C          8.7783     21.3116      6.7661
    91         C          5.2689     15.2917      9.2766
    92         C         20.8109      9.2742     11.2864
    93         C          2.7608     12.7836      8.7759
    94         C         12.7836      8.7759      2.7608
    95         C          9.2742     11.2864     20.8109
    96         C          8.7759      2.7608     12.7836
    97         C         15.5588     15.3831     22.1420
    98         C          9.3656     21.5763      7.9455
    99         C          1.9280      3.5238     20.7219
   100         C         20.7219      1.9280      3.5238
   101         C         22.1420     15.5588     15.3831
   102         C         15.3831     22.1420     15.5588
   103         C          3.5238     20.7219      1.9280
   104         C         21.4006     14.5287     16.1245
   105         C          2.4937     19.9805      2.6694
   106         C          2.6694      2.4937     19.9805
   107         C         19.9805      2.6694      2.4937
   108         C         14.5287     16.1245     21.4006
   109         C         16.1245     21.4006     14.5287
   110         C          8.6869     10.1070     20.5462
   111         C          8.5112      3.3481     13.9630
   112         C         20.5462      8.6869     10.1070
   113         C         13.9630      8.5112      3.3481
   114         C         10.1070     20.5462      8.6869
   115         C          3.3481     13.9630      8.5112
   116         C         21.5763      7.9455      9.3656
   117         C          4.0895     14.7044      9.5413
   118         C         14.7044      9.5413      4.0895
   119         C          7.9455      9.3656     21.5763
   120         C          9.5413      4.0895     14.7044
   121         C         19.2175     19.9805     17.9851
   122         C         13.9630      1.1650     12.1024
   123         C          6.0849      7.1825     16.1245
   124         C         16.1245      6.0849      7.1825
   125         C         17.9851     19.2175     19.9805
   126         C         19.9805     17.9851     19.2175
   127         C          7.1825     16.1245      6.0849
   128         C          1.9280     10.8700     11.9676
   129         C         22.9050      0.0674     22.1420
   130         C         22.1420     22.9050      0.0674
   131         C          0.0674     22.1420     22.9050
   132         C         10.8700     11.9676      1.9280
   133         C         11.9676      1.9280     10.8700
   134         C          4.0895      5.9501     16.8875
   135         C          4.8525      7.9455     18.1199
   136         C         16.8875      4.0895      5.9501
   137         C         18.1199      4.8525      7.9455
   138         C          5.9501     16.8875      4.0895
   139         C          7.9455     18.1199      4.8525
   140         C          1.1650     12.1024     13.9630
   141         C         24.0026     10.1070     13.2000
   142         C         10.1070     13.2000     24.0026
   143         C         12.1024     13.9630      1.1650
   144         C         13.2000     24.0026     10.1070
   145         C         18.4569     16.9453     20.5630
   146         C         10.9278      0.4044      9.5245
   147         C          3.5070      6.4219     19.1597
   148         C         19.1597      3.5070      6.4219
   149         C         20.5630     18.4569     16.9453
   150         C         16.9453     20.5630     18.4569
   151         C          6.4219     19.1597      3.5070
   152         C         22.9628     11.6306     14.5455
   153         C         23.6656     21.5595      1.1072
   154         C          1.1072     23.6656     21.5595
   155         C         21.5595      1.1072     23.6656
   156         C         11.6306     14.5455     22.9628
   157         C         14.5455     22.9628     11.6306
   158         C          7.1247      8.5280     17.6481
   159         C          5.6131      4.9103     15.5420
   160         C         17.6481      7.1247      8.5280
   161         C         15.5420      5.6131      4.9103
   162         C          8.5280     17.6481      7.1247
   163         C          4.9103     15.5420      5.6131
   164         C          0.4044      9.5245     10.9278
   165         C          2.5105     13.1422     12.4394
   166         C         13.1422     12.4394      2.5105
   167         C          9.5245     10.9278      0.4044
   168         C         12.4394      2.5105     13.1422
   169         C         16.5481     19.0201     20.1899
   170         C         13.0026     22.5656      9.8976
   171         C          3.8801      4.5131     17.0849
   172         C         17.0849      3.8801      4.5131
   173         C         20.1899     16.5481     19.0201
   174         C         19.0201     20.1899     16.5481
   175         C          4.5131     17.0849      3.8801
   176         C          0.9676     13.5394     14.1724
   177         C          1.5044     21.9326     23.1024
   178         C         23.1024      1.5044     21.9326
   179         C         21.9326     23.1024      1.5044
   180         C         13.5394     14.1724      0.9676
   181         C         14.1724      0.9676     13.5394
   182         C          5.0499      8.1549     19.5569
   183         C          7.5219      6.9851     15.9151
   184         C         19.5569      5.0499      8.1549
   185         C         15.9151      7.5219      6.9851
   186         C          8.1549     19.5569      5.0499
   187         C          6.9851     15.9151      7.5219
   188         C         22.5656      9.8976     13.0026
   189         C          2.1374     11.0674     10.5306
   190         C         11.0674     10.5306      2.1374
   191         C          9.8976     13.0026     22.5656
   192         C         10.5306      2.1374     11.0674
   193         C         23.2251     21.9904     23.9087
   194         C         15.9729      5.1726      6.1788
   195         C          0.1613     11.1901     14.1146
   196         C         14.1146      0.1613     11.1901
   197         C         23.9087     23.2251     21.9904
   198         C         21.9904     23.9087     23.2251
   199         C         11.1901     14.1146      0.1613
   200         C          3.9379      6.8624     17.8912
   201         C         18.8974     18.2138     20.1321
   202         C         20.1321     18.8974     18.2138
   203         C         18.2138     20.1321     18.8974
   204         C          6.8624     17.8912      3.9379
   205         C         17.8912      3.9379      6.8624
   206         C          2.0796     11.8737     12.8799
   207         C          0.8449      9.9554     12.1963
   208         C         12.8799      2.0796     11.8737
   209         C         12.1963      0.8449      9.9554
   210         C         11.8737     12.8799      2.0796
   211         C          9.9554     12.1963      0.8449
   212         C          5.1726      6.1788     15.9729
   213         C          5.8562      8.0971     17.2076
   214         C          8.0971     17.2076      5.8562
   215         C          6.1788     15.9729      5.1726
   216         C         17.2076      5.8562      8.0971
   217         C         16.1630     17.8142     20.7291
   218         C         11.7967     22.1805      9.3584
   219         C          3.3409      4.1280     18.2908
   220         C         18.2908      3.3409      4.1280
   221         C         20.7291     16.1630     17.8142
   222         C         17.8142     20.7291     16.1630
   223         C          4.1280     18.2908      3.3409
   224         C         23.8317     13.9245     14.7116
   225         C          1.8895     21.3934      0.2383
   226         C          0.2383      1.8895     21.3934
   227         C         21.3934      0.2383      1.8895
   228         C         13.9245     14.7116     23.8317
   229         C         14.7116     23.8317     13.9245
   230         C          6.2558      8.6941     19.9420
   231         C          7.9070      5.7792     15.3759
   232         C         19.9420      6.2558      8.6941
   233         C         15.3759      7.9070      5.7792
   234         C          8.6941     19.9420      6.2558
   235         C          5.7792     15.3759      7.9070
   236         C         22.1805      9.3584     11.7967
   237         C          2.6766     12.2733     10.1455
   238         C         12.2733     10.1455      2.6766
   239         C          9.3584     11.7967     22.1805
   240         C         10.1455      2.6766     12.2733
   241         C         19.2993     15.8910     20.0335
   242         C          9.8735      1.2468     10.0540
   243         C          4.0365      7.2643     20.2140
   244         C         20.2140      4.0365      7.2643
   245         C         20.0335     19.2993     15.8910
   246         C         15.8910     20.0335     19.2993
   247         C          7.2643     20.2140      4.0365
   248         C         21.9085     10.7882     14.0160
   249         C         22.8232     22.0890      2.1615
   250         C          2.1615     22.8232     22.0890
   251         C         22.0890      2.1615     22.8232
   252         C         10.7882     14.0160     21.9085
   253         C         14.0160     21.9085     10.7882
   254         C          8.1790      7.9985     16.8057
   255         C          4.7707      3.8560     16.0715
   256         C         16.8057      8.1790      7.9985
   257         C         16.0715      4.7707      3.8560
   258         C          7.9985     16.8057      8.1790
   259         C          3.8560     16.0715      4.7707
   260         C          1.2468     10.0540      9.8735
   261         C          1.9810     14.1965     13.2818
   262         C         14.1965     13.2818      1.9810
   263         C         10.0540      9.8735      1.2468
   264         C         13.2818      1.9810     14.1965
   265         C         16.8803     15.4770     21.4873
   266         C          9.4595     22.8978      8.6002
   267         C          2.5827      4.8453     20.6280
   268         C         20.6280      2.5827      4.8453
   269         C         21.4873     16.8803     15.4770
   270         C         15.4770     21.4873     16.8803
   271         C          4.8453     20.6280      2.5827
   272         C         21.4945     13.2072     15.4698
   273         C          1.1722     20.6352      2.5755
   274         C          2.5755      1.1722     20.6352
   275         C         20.6352      2.5755      1.1722
   276         C         13.2072     15.4698     21.4945
   277         C         15.4698     21.4945     13.2072
   278         C          8.5930      9.4523     19.2247
   279         C          7.1897      3.4420     14.6177
   280         C         19.2247      8.5930      9.4523
   281         C         14.6177      7.1897      3.4420
   282         C          9.4523     19.2247      8.5930
   283         C          3.4420     14.6177      7.1897
   284         C         22.8978      8.6002      9.4595
   285         C          3.4348     14.6105     10.8628
   286         C         14.6105     10.8628      3.4348
   287         C          8.6002      9.4595     22.8978
   288         C         10.8628      3.4348     14.6105
   289         H         13.4503     21.5980     17.5518
   290         H         15.5805     19.4678     12.5357
   291         H          6.5182      1.4153     14.5070
   292         H         14.5070      6.5182      1.4153
   293         H         17.5518     13.4503     21.5980
   294         H         21.5980     17.5518     13.4503
   295         H          1.4153     14.5070      6.5182
   296         H          3.5455     16.6372     11.5343
   297         H          4.6022      0.5007     20.5245
   298         H         20.5245      4.6022      0.5007
   299         H          0.5007     20.5245      4.6022
   300         H         16.6372     11.5343      3.5455
   301         H         11.5343      3.5455     16.6372
   302         H          2.4720      5.5168     22.6547
   303         H         10.6197      9.5630     18.5532
   304         H         22.6547      2.4720      5.5168
   305         H         18.5532     10.6197      9.5630
   306         H          5.5168     22.6547      2.4720
   307         H          9.5630     18.5532     10.6197
   308         H         19.4678     12.5357     15.5805
   309         H         23.5693      8.4895      7.4328
   310         H          8.4895      7.4328     23.5693
   311         H         12.5357     15.5805     19.4678
   312         H          7.4328     23.5693      8.4895
   313         H         13.7488     20.1273     19.4991
   314         H         14.1098     19.7663     10.5884
   315         H          4.5709      1.7138     15.9777
   316         H         15.9777      4.5709      1.7138
   317         H         19.4991     13.7488     20.1273
   318         H         20.1273     19.4991     13.7488
   319         H          1.7138     15.9777      4.5709
   320         H          2.0748     16.3387     13.4816
   321         H          4.3037     22.6234     21.9952
   322         H         21.9952      4.3037     22.6234
   323         H         22.6234     21.9952      4.3037
   324         H         16.3387     13.4816      2.0748
   325         H         13.4816      2.0748     16.3387
   326         H          3.9427      7.4641     22.3562
   327         H         10.3212      8.0923     16.6059
   328         H         22.3562      3.9427      7.4641
   329         H         16.6059     10.3212      8.0923
   330         H          7.4641     22.3562      3.9427
   331         H          8.0923     16.6059     10.3212
   332         H         19.7663     10.5884     14.1098
   333         H          1.4466      9.9602      7.7313
   334         H          9.9602      7.7313      1.4466
   335         H         10.5884     14.1098     19.7663
   336         H          7.7313      1.4466      9.9602
   337         H         14.0039     17.8985     20.3367
   338         H         11.8810     20.0214      9.7508
   339         H          3.7333      1.9689     18.2065
   340         H         18.2065      3.7333      1.9689
   341         H         20.3367     14.0039     17.8985
   342         H         17.8985     20.3367     14.0039
   343         H          1.9689     18.2065      3.7333
   344         H         23.9160     16.0836     14.3192
   345         H          4.0486     21.7858      0.1540
   346         H          0.1540      4.0486     21.7858
   347         H         21.7858      0.1540      4.0486
   348         H         16.0836     14.3192     23.9160
   349         H         14.3192     23.9160     16.0836
   350         H          6.1715      8.3017     22.1011
   351         H         10.0661      5.8635     15.7683
   352         H         22.1011      6.1715      8.3017
   353         H         15.7683     10.0661      5.8635
   354         H          8.3017     22.1011      6.1715
   355         H          5.8635     15.7683     10.0661
   356         H         20.0214      9.7508     11.8810
   357         H          2.2842     12.1890      7.9864
   358         H         12.1890      7.9864      2.2842
   359         H          9.7508     11.8810     20.0214
   360         H          7.9864      2.2842     12.1890

 General Reference for PM7:
 "Optimization of Parameters for Semiempirical Methods VI: More Modifications to the 
 NDDO Approximations and Re-optimization of Parameters", J. J. P. Stewart, J. Mol. Mod., 1:32, 19 (2013)
 https://link.springer.com/article/10.1007/s00894-012-1667-x

           Empirical Formula: C264 H72 N24  =   360 atoms



      RHF CALCULATION, NO. OF DOUBLY OCCUPIED LEVELS = 624


 -------------------------------------------------------------------------------
 PM7 CHARGE=0 NOOPT




     NO PARAMETERS MARKED FOR OPTIMIZATION, SO 1SCF WAS USED  
     SCF FIELD WAS ACHIEVED                                   


                              PM7 CALCULATION
                                                       MOPAC v22.1.0 Linux
                                                       Wed Jan 31 15:04:05 2024




          FINAL HEAT OF FORMATION =       3095.74287 KCAL/MOL =   12952.58818 KJ/MOL
          H.o.F. per unit cell    =        128.98929 KCAL, for 24 unit cells, unit cell = C11 H3 N1



          IONIZATION POTENTIAL    =          6.467735 EV
          HOMO LUMO ENERGIES (EV) =         -6.468 -2.339
          NO. OF FILLED LEVELS    =        624
          MOLECULAR WEIGHT        =       3579.6336

                   THE SYSTEM IS A SOLID


                UNIT CELL TRANSLATION VECTORS

              X                Y              Z
    T1 =    24.0700000      0.0000000      0.0000000
    T2 =     0.0000000     24.0700000      0.0000000
    T3 =     0.0000000      0.0000000     24.0700000

          VOLUME OF UNIT CELL     =      13945.313 CUBIC ANGSTROMS

          DENSITY                 =          0.426 GRAMS/CC
                              A   =         24.070 ANGSTROMS
                              B   =         24.070 ANGSTROMS
                              C   =         24.070 ANGSTROMS
                            ALPHA =         90.000 DEGREES
                            BETA  =         90.000 DEGREES
                            GAMMA =         90.000 DEGREES



          SCF CALCULATIONS        =          1

          WALL-CLOCK TIME         =          9 MINUTES AND 33.738 SECONDS
          COMPUTATION TIME        =          9 MINUTES AND 33.732 SECONDS




   ATOM   CHEMICAL          X               Y               Z
  NUMBER   SYMBOL      (ANGSTROMS)     (ANGSTROMS)     (ANGSTROMS)

     1       N         17.16672400     16.79123200     21.00829600   
     2       N         10.77373200     23.18422400      9.07920400   
     3       N          3.06170400      5.13172400     19.31376800   
     4       N         19.31376800      3.06170400      5.13172400   
     5       N         21.00829600     17.16672400     16.79123200   
     6       N         16.79123200     21.00829600     17.16672400   
     7       N          5.13172400     19.31376800      3.06170400   
     8       N         22.80873200     12.92077600     14.99079600   
     9       N          0.88577600     21.11420400      1.26126800   
    10       N          1.26126800      0.88577600     21.11420400   
    11       N         21.11420400      1.26126800      0.88577600   
    12       N         12.92077600     14.99079600     22.80873200   
    13       N         14.99079600     22.80873200     12.92077600   
    14       N          7.27876800      8.97329600     18.93827600   
    15       N          6.90327600      4.75623200     15.09670400   
    16       N         18.93827600      7.27876800      8.97329600   
    17       N         15.09670400      6.90327600      4.75623200   
    18       N          8.97329600     18.93827600      7.27876800   
    19       N          4.75623200     15.09670400      6.90327600   
    20       N         23.18422400      9.07920400     10.77373200   
    21       N          2.95579600     13.29626800     11.14922400   
    22       N         13.29626800     11.14922400      2.95579600   
    23       N          9.07920400     10.77373200     23.18422400   
    24       N         11.14922400      2.95579600     13.29626800   
    25       C         17.76606700     14.46125600     21.22974000   
    26       C          8.44375600     23.78356700      8.85776000   
    27       C          2.84026000      5.73106700     21.64374400   
    28       C         21.64374400      2.84026000      5.73106700   
    29       C         21.22974000     17.76606700     14.46125600   
    30       C         14.46125600     21.22974000     17.76606700   
    31       C          5.73106700     21.64374400      2.84026000   
    32       C         20.47875600     12.32143300     15.21224000   
    33       C          0.28643300     20.89276000      3.59124400   
    34       C          3.59124400      0.28643300     20.89276000   
    35       C         20.89276000      3.59124400      0.28643300   
    36       C         12.32143300     15.21224000     20.47875600   
    37       C         15.21224000     20.47875600     12.32143300   
    38       C          9.60874400      9.19474000     18.33893300   
    39       C          6.30393300      2.42625600     14.87526000   
    40       C         18.33893300      9.60874400      9.19474000   
    41       C         14.87526000      6.30393300      2.42625600   
    42       C          9.19474000     18.33893300      9.60874400   
    43       C          2.42625600     14.87526000      6.30393300   
    44       C         23.78356700      8.85776000      8.44375600   
    45       C          3.17724000     15.62624400     11.74856700   
    46       C         15.62624400     11.74856700      3.17724000   
    47       C          8.85776000      8.44375600     23.78356700   
    48       C         11.74856700      3.17724000     15.62624400   
    49       C         18.94068300     14.63696700     20.42098800   
    50       C          8.61946700      0.88818300      9.66651200   
    51       C          3.64901200      6.90568300     21.46803300   
    52       C         21.46803300      3.64901200      6.90568300   
    53       C         20.42098800     18.94068300     14.63696700   
    54       C         14.63696700     20.42098800     18.94068300   
    55       C          6.90568300     21.46803300      3.64901200   
    56       C         20.65446700     11.14681700     14.40348800   
    57       C         23.18181700     21.70151200      3.41553300   
    58       C          3.41553300     23.18181700     21.70151200   
    59       C         21.70151200      3.41553300     23.18181700   
    60       C         11.14681700     14.40348800     20.65446700   
    61       C         14.40348800     20.65446700     11.14681700   
    62       C          9.43303300      8.38598800     17.16431700   
    63       C          5.12931700      2.60196700     15.68401200   
    64       C         17.16431700      9.43303300      8.38598800   
    65       C         15.68401200      5.12931700      2.60196700   
    66       C          8.38598800     17.16431700      9.43303300   
    67       C          2.60196700     15.68401200      5.12931700   
    68       C          0.88818300      9.66651200      8.61946700   
    69       C          2.36848800     15.45053300     12.92318300   
    70       C         15.45053300     12.92318300      2.36848800   
    71       C          9.66651200      8.61946700      0.88818300   
    72       C         12.92318300      2.36848800     15.45053300   
    73       C         14.79342200     17.30392300     20.81332900   
    74       C         11.28642300     20.81092200      9.27417100   
    75       C          3.25667100      2.75842200     18.80107700   
    76       C         18.80107700      3.25667100      2.75842200   
    77       C         20.81332900     14.79342200     17.30392300   
    78       C         17.30392300     20.81332900     14.79342200   
    79       C          2.75842200     18.80107700      3.25667100   
    80       C         23.32142300     15.29407800     14.79582900   
    81       C          3.25907800     21.30917100      0.74857700   
    82       C          0.74857700      3.25907800     21.30917100   
    83       C         21.30917100      0.74857700      3.25907800   
    84       C         15.29407800     14.79582900     23.32142300   
    85       C         14.79582900     23.32142300     15.29407800   
    86       C          6.76607700      8.77832900     21.31157800   
    87       C          9.27657800      5.26892300     15.29167100   
    88       C         21.31157800      6.76607700      8.77832900   
    89       C         15.29167100      9.27657800      5.26892300   
    90       C          8.77832900     21.31157800      6.76607700   
    91       C          5.26892300     15.29167100      9.27657800   
    92       C         20.81092200      9.27417100     11.28642300   
    93       C          2.76082900     12.78357700      8.77592200   
    94       C         12.78357700      8.77592200      2.76082900   
    95       C          9.27417100     11.28642300     20.81092200   
    96       C          8.77592200      2.76082900     12.78357700   
    97       C         15.55884800     15.38313700     22.14199300   
    98       C          9.36563700     21.57634800      7.94550700   
    99       C          1.92800700      3.52384800     20.72186300   
   100       C         20.72186300      1.92800700      3.52384800   
   101       C         22.14199300     15.55884800     15.38313700   
   102       C         15.38313700     22.14199300     15.55884800   
   103       C          3.52384800     20.72186300      1.92800700   
   104       C         21.40063700     14.52865200     16.12449300   
   105       C          2.49365200     19.98050700      2.66936300   
   106       C          2.66936300      2.49365200     19.98050700   
   107       C         19.98050700      2.66936300      2.49365200   
   108       C         14.52865200     16.12449300     21.40063700   
   109       C         16.12449300     21.40063700     14.52865200   
   110       C          8.68686300     10.10699300     20.54615200   
   111       C          8.51115200      3.34813700     13.96300700   
   112       C         20.54615200      8.68686300     10.10699300   
   113       C         13.96300700      8.51115200      3.34813700   
   114       C         10.10699300     20.54615200      8.68686300   
   115       C          3.34813700     13.96300700      8.51115200   
   116       C         21.57634800      7.94550700      9.36563700   
   117       C          4.08949300     14.70436300      9.54134800   
   118       C         14.70436300      9.54134800      4.08949300   
   119       C          7.94550700      9.36563700     21.57634800   
   120       C          9.54134800      4.08949300     14.70436300   
   121       C         19.21748800     19.98050700     17.98510400   
   122       C         13.96300700      1.16498800     12.10239600   
   123       C          6.08489600      7.18248800     16.12449300   
   124       C         16.12449300      6.08489600      7.18248800   
   125       C         17.98510400     19.21748800     19.98050700   
   126       C         19.98050700     17.98510400     19.21748800   
   127       C          7.18248800     16.12449300      6.08489600   
   128       C          1.92800700     10.87001200     11.96760400   
   129       C         22.90501200      0.06739600     22.14199300   
   130       C         22.14199300     22.90501200      0.06739600   
   131       C          0.06739600     22.14199300     22.90501200   
   132       C         10.87001200     11.96760400      1.92800700   
   133       C         11.96760400      1.92800700     10.87001200   
   134       C          4.08949300      5.95010400     16.88751200   
   135       C          4.85251200      7.94550700     18.11989600   
   136       C         16.88751200      4.08949300      5.95010400   
   137       C         18.11989600      4.85251200      7.94550700   
   138       C          5.95010400     16.88751200      4.08949300   
   139       C          7.94550700     18.11989600      4.85251200   
   140       C          1.16498800     12.10239600     13.96300700   
   141       C         24.00260400     10.10699300     13.19998800   
   142       C         10.10699300     13.19998800     24.00260400   
   143       C         12.10239600     13.96300700      1.16498800   
   144       C         13.19998800     24.00260400     10.10699300   
   145       C         18.45687600     16.94528000     20.56300100   
   146       C         10.92778000      0.40437600      9.52449900   
   147       C          3.50699900      6.42187600     19.15972000   
   148       C         19.15972000      3.50699900      6.42187600   
   149       C         20.56300100     18.45687600     16.94528000   
   150       C         16.94528000     20.56300100     18.45687600   
   151       C          6.42187600     19.15972000      3.50699900   
   152       C         22.96278000     11.63062400     14.54550100   
   153       C         23.66562400     21.55949900      1.10722000   
   154       C          1.10722000     23.66562400     21.55949900   
   155       C         21.55949900      1.10722000     23.66562400   
   156       C         11.63062400     14.54550100     22.96278000   
   157       C         14.54550100     22.96278000     11.63062400   
   158       C          7.12472000      8.52800100     17.64812400   
   159       C          5.61312400      4.91028000     15.54199900   
   160       C         17.64812400      7.12472000      8.52800100   
   161       C         15.54199900      5.61312400      4.91028000   
   162       C          8.52800100     17.64812400      7.12472000   
   163       C          4.91028000     15.54199900      5.61312400   
   164       C          0.40437600      9.52449900     10.92778000   
   165       C          2.51050100     13.14222000     12.43937600   
   166       C         13.14222000     12.43937600      2.51050100   
   167       C          9.52449900     10.92778000      0.40437600   
   168       C         12.43937600      2.51050100     13.14222000   
   169       C         16.54812500     19.02011400     20.18991600   
   170       C         13.00261400     22.56562500      9.89758400   
   171       C          3.88008400      4.51312500     17.08488600   
   172       C         17.08488600      3.88008400      4.51312500   
   173       C         20.18991600     16.54812500     19.02011400   
   174       C         19.02011400     20.18991600     16.54812500   
   175       C          4.51312500     17.08488600      3.88008400   
   176       C          0.96761400     13.53937500     14.17241600   
   177       C          1.50437500     21.93258400     23.10238600   
   178       C         23.10238600      1.50437500     21.93258400   
   179       C         21.93258400     23.10238600      1.50437500   
   180       C         13.53937500     14.17241600      0.96761400   
   181       C         14.17241600      0.96761400     13.53937500   
   182       C          5.04988600      8.15491600     19.55687500   
   183       C          7.52187500      6.98511400     15.91508400   
   184       C         19.55687500      5.04988600      8.15491600   
   185       C         15.91508400      7.52187500      6.98511400   
   186       C          8.15491600     19.55687500      5.04988600   
   187       C          6.98511400     15.91508400      7.52187500   
   188       C         22.56562500      9.89758400     13.00261400   
   189       C          2.13741600     11.06738600     10.53062500   
   190       C         11.06738600     10.53062500      2.13741600   
   191       C          9.89758400     13.00261400     22.56562500   
   192       C         10.53062500      2.13741600     11.06738600   
   193       C         23.22514300     21.99035200     23.90873100   
   194       C         15.97285200      5.17264300      6.17876900   
   195       C          0.16126900     11.19014300     14.11464800   
   196       C         14.11464800      0.16126900     11.19014300   
   197       C         23.90873100     23.22514300     21.99035200   
   198       C         21.99035200     23.90873100     23.22514300   
   199       C         11.19014300     14.11464800      0.16126900   
   200       C          3.93785200      6.86235700     17.89123100   
   201       C         18.89735700     18.21376900     20.13214800   
   202       C         20.13214800     18.89735700     18.21376900   
   203       C         18.21376900     20.13214800     18.89735700   
   204       C          6.86235700     17.89123100      3.93785200   
   205       C         17.89123100      3.93785200      6.86235700   
   206       C          2.07964800     11.87373100     12.87985700   
   207       C          0.84485700      9.95535200     12.19626900   
   208       C         12.87985700      2.07964800     11.87373100   
   209       C         12.19626900      0.84485700      9.95535200   
   210       C         11.87373100     12.87985700      2.07964800   
   211       C          9.95535200     12.19626900      0.84485700   
   212       C          5.17264300      6.17876900     15.97285200   
   213       C          5.85623100      8.09714800     17.20764300   
   214       C          8.09714800     17.20764300      5.85623100   
   215       C          6.17876900     15.97285200      5.17264300   
   216       C         17.20764300      5.85623100      8.09714800   
   217       C         16.16300500     17.81420700     20.72908400   
   218       C         11.79670700     22.18050500      9.35841600   
   219       C          3.34091600      4.12800500     18.29079300   
   220       C         18.29079300      3.34091600      4.12800500   
   221       C         20.72908400     16.16300500     17.81420700   
   222       C         17.81420700     20.72908400     16.16300500   
   223       C          4.12800500     18.29079300      3.34091600   
   224       C         23.83170700     13.92449500     14.71158400   
   225       C          1.88949500     21.39341600      0.23829300   
   226       C          0.23829300      1.88949500     21.39341600   
   227       C         21.39341600      0.23829300      1.88949500   
   228       C         13.92449500     14.71158400     23.83170700   
   229       C         14.71158400     23.83170700     13.92449500   
   230       C          6.25579300      8.69408400     19.94199500   
   231       C          7.90699500      5.77920700     15.37591600   
   232       C         19.94199500      6.25579300      8.69408400   
   233       C         15.37591600      7.90699500      5.77920700   
   234       C          8.69408400     19.94199500      6.25579300   
   235       C          5.77920700     15.37591600      7.90699500   
   236       C         22.18050500      9.35841600     11.79670700   
   237       C          2.67658400     12.27329300     10.14550500   
   238       C         12.27329300     10.14550500      2.67658400   
   239       C          9.35841600     11.79670700     22.18050500   
   240       C         10.14550500      2.67658400     12.27329300   
   241       C         19.29932600     15.89101400     20.03346100   
   242       C          9.87351400      1.24682600     10.05403900   
   243       C          4.03653900      7.26432600     20.21398600   
   244       C         20.21398600      4.03653900      7.26432600   
   245       C         20.03346100     19.29932600     15.89101400   
   246       C         15.89101400     20.03346100     19.29932600   
   247       C          7.26432600     20.21398600      4.03653900   
   248       C         21.90851400     10.78817400     14.01596100   
   249       C         22.82317400     22.08903900      2.16148600   
   250       C          2.16148600     22.82317400     22.08903900   
   251       C         22.08903900      2.16148600     22.82317400   
   252       C         10.78817400     14.01596100     21.90851400   
   253       C         14.01596100     21.90851400     10.78817400   
   254       C          8.17898600      7.99846100     16.80567400   
   255       C          4.77067400      3.85601400     16.07153900   
   256       C         16.80567400      8.17898600      7.99846100   
   257       C         16.07153900      4.77067400      3.85601400   
   258       C          7.99846100     16.80567400      8.17898600   
   259       C          3.85601400     16.07153900      4.77067400   
   260       C          1.24682600     10.05403900      9.87351400   
   261       C          1.98096100     14.19648600     13.28182600   
   262       C         14.19648600     13.28182600      1.98096100   
   263       C         10.05403900      9.87351400      1.24682600   
   264       C         13.28182600      1.98096100     14.19648600   
   265       C         16.88029100     15.47701000     21.48728900   
   266       C          9.45951000     22.89779100      8.60021100   
   267       C          2.58271100      4.84529100     20.62799000   
   268       C         20.62799000      2.58271100      4.84529100   
   269       C         21.48728900     16.88029100     15.47701000   
   270       C         15.47701000     21.48728900     16.88029100   
   271       C          4.84529100     20.62799000      2.58271100   
   272       C         21.49451000     13.20720900     15.46978900   
   273       C          1.17220900     20.63521100      2.57549000   
   274       C          2.57549000      1.17220900     20.63521100   
   275       C         20.63521100      2.57549000      1.17220900   
   276       C         13.20720900     15.46978900     21.49451000   
   277       C         15.46978900     21.49451000     13.20720900   
   278       C          8.59299000      9.45228900     19.22470900   
   279       C          7.18970900      3.44201000     14.61771100   
   280       C         19.22470900      8.59299000      9.45228900   
   281       C         14.61771100      7.18970900      3.44201000   
   282       C          9.45228900     19.22470900      8.59299000   
   283       C          3.44201000     14.61771100      7.18970900   
   284       C         22.89779100      8.60021100      9.45951000   
   285       C          3.43478900     14.61049000     10.86279100   
   286       C         14.61049000     10.86279100      3.43478900   
   287       C          8.60021100      9.45951000     22.89779100   
   288       C         10.86279100      3.43478900     14.61049000   
   289       H         13.45031600     21.59801100     17.55184400   
   290       H         15.58051100     19.46781600     12.53565600   
   291       H          6.51815600      1.41531600     14.50698900   
   292       H         14.50698900      6.51815600      1.41531600   
   293       H         17.55184400     13.45031600     21.59801100   
   294       H         21.59801100     17.55184400     13.45031600   
   295       H          1.41531600     14.50698900      6.51815600   
   296       H          3.54551100     16.63718400     11.53434400   
   297       H          4.60218400      0.50065600     20.52448900   
   298       H         20.52448900      4.60218400      0.50065600   
   299       H          0.50065600     20.52448900      4.60218400   
   300       H         16.63718400     11.53434400      3.54551100   
   301       H         11.53434400      3.54551100     16.63718400   
   302       H          2.47198900      5.51684400     22.65468400   
   303       H         10.61968400      9.56301100     18.55315600   
   304       H         22.65468400      2.47198900      5.51684400   
   305       H         18.55315600     10.61968400      9.56301100   
   306       H          5.51684400     22.65468400      2.47198900   
   307       H          9.56301100     18.55315600     10.61968400   
   308       H         19.46781600     12.53565600     15.58051100   
   309       H         23.56934400      8.48948900      7.43281600   
   310       H          8.48948900      7.43281600     23.56934400   
   311       H         12.53565600     15.58051100     19.46781600   
   312       H          7.43281600     23.56934400      8.48948900   
   313       H         13.74878400     20.12733400     19.49910700   
   314       H         14.10983400     19.76628400     10.58839300   
   315       H          4.57089300      1.71378400     15.97766600   
   316       H         15.97766600      4.57089300      1.71378400   
   317       H         19.49910700     13.74878400     20.12733400   
   318       H         20.12733400     19.49910700     13.74878400   
   319       H          1.71378400     15.97766600      4.57089300   
   320       H          2.07483400     16.33871600     13.48160700   
   321       H          4.30371600     22.62339300     21.99516600   
   322       H         21.99516600      4.30371600     22.62339300   
   323       H         22.62339300     21.99516600      4.30371600   
   324       H         16.33871600     13.48160700      2.07483400   
   325       H         13.48160700      2.07483400     16.33871600   
   326       H          3.94266600      7.46410700     22.35621600   
   327       H         10.32121600      8.09233400     16.60589300   
   328       H         22.35621600      3.94266600      7.46410700   
   329       H         16.60589300     10.32121600      8.09233400   
   330       H          7.46410700     22.35621600      3.94266600   
   331       H          8.09233400     16.60589300     10.32121600   
   332       H         19.76628400     10.58839300     14.10983400   
   333       H          1.44660700      9.96016600      7.73128400   
   334       H          9.96016600      7.73128400      1.44660700   
   335       H         10.58839300     14.10983400     19.76628400   
   336       H          7.73128400      1.44660700      9.96016600   
   337       H         14.00392600     17.89845200     20.33674300   
   338       H         11.88095200     20.02142600      9.75075700   
   339       H          3.73325700      1.96892600     18.20654800   
   340       H         18.20654800      3.73325700      1.96892600   
   341       H         20.33674300     14.00392600     17.89845200   
   342       H         17.89845200     20.33674300     14.00392600   
   343       H          1.96892600     18.20654800      3.73325700   
   344       H         23.91595200     16.08357400     14.31924300   
   345       H          4.04857400     21.78575700      0.15404800   
   346       H          0.15404800      4.04857400     21.78575700   
   347       H         21.78575700      0.15404800      4.04857400   
   348       H         16.08357400     14.31924300     23.91595200   
   349       H         14.31924300     23.91595200     16.08357400   
   350       H          6.17154800      8.30174300     22.10107400   
   351       H         10.06607400      5.86345200     15.76825700   
   352       H         22.10107400      6.17154800      8.30174300   
   353       H         15.76825700     10.06607400      5.86345200   
   354       H          8.30174300     22.10107400      6.17154800   
   355       H          5.86345200     15.76825700     10.06607400   
   356       H         20.02142600      9.75075700     11.88095200   
   357       H          2.28424300     12.18904800      7.98642600   
   358       H         12.18904800      7.98642600      2.28424300   
   359       H          9.75075700     11.88095200     20.02142600   
   360       H          7.98642600      2.28424300     12.18904800   
   361      Tv         24.07000000      0.00000000      0.00000000   
   362      Tv          0.00000000     24.07000000      0.00000000   
   363      Tv          0.00000000      0.00000000     24.07000000   

                             CARTESIAN COORDINATES

   1    N       17.166724000    16.791232000    21.008296000
   2    N       10.773732000    23.184224000     9.079204000
   3    N        3.061704000     5.131724000    19.313768000
   4    N       19.313768000     3.061704000     5.131724000
   5    N       21.008296000    17.166724000    16.791232000
   6    N       16.791232000    21.008296000    17.166724000
   7    N        5.131724000    19.313768000     3.061704000
   8    N       22.808732000    12.920776000    14.990796000
   9    N        0.885776000    21.114204000     1.261268000
  10    N        1.261268000     0.885776000    21.114204000
  11    N       21.114204000     1.261268000     0.885776000
  12    N       12.920776000    14.990796000    22.808732000
  13    N       14.990796000    22.808732000    12.920776000
  14    N        7.278768000     8.973296000    18.938276000
  15    N        6.903276000     4.756232000    15.096704000
  16    N       18.938276000     7.278768000     8.973296000
  17    N       15.096704000     6.903276000     4.756232000
  18    N        8.973296000    18.938276000     7.278768000
  19    N        4.756232000    15.096704000     6.903276000
  20    N       23.184224000     9.079204000    10.773732000
  21    N        2.955796000    13.296268000    11.149224000
  22    N       13.296268000    11.149224000     2.955796000
  23    N        9.079204000    10.773732000    23.184224000
  24    N       11.149224000     2.955796000    13.296268000
  25    C       17.766067000    14.461256000    21.229740000
  26    C        8.443756000    23.783567000     8.857760000
  27    C        2.840260000     5.731067000    21.643744000
  28    C       21.643744000     2.840260000     5.731067000
  29    C       21.229740000    17.766067000    14.461256000
  30    C       14.461256000    21.229740000    17.766067000
  31    C        5.731067000    21.643744000     2.840260000
  32    C       20.478756000    12.321433000    15.212240000
  33    C        0.286433000    20.892760000     3.591244000
  34    C        3.591244000     0.286433000    20.892760000
  35    C       20.892760000     3.591244000     0.286433000
  36    C       12.321433000    15.212240000    20.478756000
  37    C       15.212240000    20.478756000    12.321433000
  38    C        9.608744000     9.194740000    18.338933000
  39    C        6.303933000     2.426256000    14.875260000
  40    C       18.338933000     9.608744000     9.194740000
  41    C       14.875260000     6.303933000     2.426256000
  42    C        9.194740000    18.338933000     9.608744000
  43    C        2.426256000    14.875260000     6.303933000
  44    C       23.783567000     8.857760000     8.443756000
  45    C        3.177240000    15.626244000    11.748567000
  46    C       15.626244000    11.748567000     3.177240000
  47    C        8.857760000     8.443756000    23.783567000
  48    C       11.748567000     3.177240000    15.626244000
  49    C       18.940683000    14.636967000    20.420988000
  50    C        8.619467000     0.888183000     9.666512000
  51    C        3.649012000     6.905683000    21.468033000
  52    C       21.468033000     3.649012000     6.905683000
  53    C       20.420988000    18.940683000    14.636967000
  54    C       14.636967000    20.420988000    18.940683000
  55    C        6.905683000    21.468033000     3.649012000
  56    C       20.654467000    11.146817000    14.403488000
  57    C       23.181817000    21.701512000     3.415533000
  58    C        3.415533000    23.181817000    21.701512000
  59    C       21.701512000     3.415533000    23.181817000
  60    C       11.146817000    14.403488000    20.654467000
  61    C       14.403488000    20.654467000    11.146817000
  62    C        9.433033000     8.385988000    17.164317000
  63    C        5.129317000     2.601967000    15.684012000
  64    C       17.164317000     9.433033000     8.385988000
  65    C       15.684012000     5.129317000     2.601967000
  66    C        8.385988000    17.164317000     9.433033000
  67    C        2.601967000    15.684012000     5.129317000
  68    C        0.888183000     9.666512000     8.619467000
  69    C        2.368488000    15.450533000    12.923183000
  70    C       15.450533000    12.923183000     2.368488000
  71    C        9.666512000     8.619467000     0.888183000
  72    C       12.923183000     2.368488000    15.450533000
  73    C       14.793422000    17.303923000    20.813329000
[...]
  293          H           0.181782        0.8182     0.81822
  294          H           0.185417        0.8146     0.81458
  295          H           0.183738        0.8163     0.81626
  296          H           0.182137        0.8179     0.81786
  297          H           0.181521        0.8185     0.81848
  298          H           0.183506        0.8165     0.81649
  299          H           0.185921        0.8141     0.81408
  300          H           0.182067        0.8179     0.81793
  301          H           0.184967        0.8150     0.81503
  302          H           0.185356        0.8146     0.81464
  303          H           0.182314        0.8177     0.81769
  304          H           0.181999        0.8180     0.81800
  305          H           0.183094        0.8169     0.81691
  306          H           0.181760        0.8182     0.81824
  307          H           0.185660        0.8143     0.81434
  308          H           0.183723        0.8163     0.81628
  309          H           0.184827        0.8152     0.81517
  310          H           0.183045        0.8170     0.81695
  311          H           0.185615        0.8144     0.81439
  312          H           0.183403        0.8166     0.81660
  313          H           0.166923        0.8331     0.83308
  314          H           0.166483        0.8335     0.83352
  315          H           0.167632        0.8324     0.83237
  316          H           0.169067        0.8309     0.83093
  317          H           0.167736        0.8323     0.83226
  318          H           0.168715        0.8313     0.83128
  319          H           0.166647        0.8334     0.83335
  320          H           0.166919        0.8331     0.83308
  321          H           0.168014        0.8320     0.83199
  322          H           0.166121        0.8339     0.83388
  323          H           0.169330        0.8307     0.83067
  324          H           0.167909        0.8321     0.83209
  325          H           0.169046        0.8310     0.83095
  326          H           0.169549        0.8305     0.83045
  327          H           0.166003        0.8340     0.83400
  328          H           0.166565        0.8334     0.83343
  329          H           0.167672        0.8323     0.83233
  330          H           0.167886        0.8321     0.83211
  331          H           0.168983        0.8310     0.83102
  332          H           0.167852        0.8321     0.83215
  333          H           0.168628        0.8314     0.83137
  334          H           0.166327        0.8337     0.83367
  335          H           0.169106        0.8309     0.83089
  336          H           0.167664        0.8323     0.83234
  337          H           0.175627        0.8244     0.82437
  338          H           0.178701        0.8213     0.82130
  339          H           0.187553        0.8124     0.81245
  340          H           0.179038        0.8210     0.82096
  341          H           0.184631        0.8154     0.81537
  342          H           0.183886        0.8161     0.81611
  343          H           0.175246        0.8248     0.82475
  344          H           0.179707        0.8203     0.82029
  345          H           0.187129        0.8129     0.81287
  346          H           0.174111        0.8259     0.82589
  347          H           0.182629        0.8174     0.81737
  348          H           0.186651        0.8133     0.81335
  349          H           0.177645        0.8224     0.82235
  350          H           0.179824        0.8202     0.82018
  351          H           0.175788        0.8242     0.82421
  352          H           0.177931        0.8221     0.82207
  353          H           0.186686        0.8133     0.81331
  354          H           0.185534        0.8145     0.81447
  355          H           0.183110        0.8169     0.81689
  356          H           0.185362        0.8146     0.81464
  357          H           0.178811        0.8212     0.82119
  358          H           0.175552        0.8244     0.82445
  359          H           0.181877        0.8181     0.81812
  360          H           0.186639        0.8134     0.81336


          ATOMIC ORBITAL ELECTRON POPULATIONS

     Atom    s        px        py        pz   
    1  N   1.52960   1.11813   1.15718   1.32300
    2  N   1.53167   1.16041   1.11874   1.33484
    3  N   1.53641   1.36789   1.12059   1.16767
    4  N   1.53182   1.16056   1.33390   1.11987
    5  N   1.53560   1.35828   1.12048   1.16665
    6  N   1.53476   1.16509   1.35030   1.12068
    7  N   1.52926   1.11784   1.15658   1.32141
    8  N   1.53246   1.16178   1.11926   1.33901
    9  N   1.53668   1.12055   1.36806   1.16820
   10  N   1.52828   1.15493   1.11700   1.31577
   11  N   1.53397   1.34490   1.16376   1.12064
   12  N   1.53645   1.12060   1.36516   1.16787
   13  N   1.53098   1.32945   1.15923   1.11946
   14  N   1.53230   1.16123   1.33596   1.12018
   15  N   1.52943   1.11745   1.15672   1.32191
   16  N   1.53114   1.11843   1.15961   1.33149
   17  N   1.53615   1.36330   1.12070   1.16732
   18  N   1.53602   1.36185   1.12059   1.16729
   19  N   1.53432   1.16438   1.34739   1.12066
   20  N   1.53560   1.12080   1.35807   1.16653
   21  N   1.53174   1.33381   1.16051   1.11965
   22  N   1.52943   1.15685   1.11769   1.32208
   23  N   1.53353   1.34273   1.16318   1.12049
   24  N   1.53597   1.12075   1.36276   1.16700
   25  C   1.07452   1.02533   1.07802   1.09789
   26  C   1.07369   1.08034   1.02881   1.10636
   27  C   1.07552   1.10364   1.03256   1.08114
   28  C   1.07429   1.07844   1.10225   1.02891
   29  C   1.07399   1.11096   1.03341   1.08196
   30  C   1.07446   1.08038   1.10656   1.03222
   31  C   1.07456   1.02486   1.07805   1.09737
   32  C   1.07379   1.08041   1.02963   1.10675
   33  C   1.07469   1.03404   1.10922   1.08222
   34  C   1.07478   1.07782   1.02312   1.09484
   35  C   1.07425   1.10669   1.08000   1.03185
   36  C   1.07467   1.03369   1.10865   1.08192
   37  C   1.07435   1.10045   1.07796   1.02769
   38  C   1.07420   1.07878   1.10374   1.02980
   39  C   1.07426   1.02507   1.07894   1.09961
   40  C   1.07384   1.02789   1.07994   1.10465
   41  C   1.07526   1.10441   1.03246   1.08103
   42  C   1.07433   1.10970   1.03345   1.08196
   43  C   1.07437   1.08014   1.10632   1.03185
   44  C   1.07494   1.03215   1.10500   1.08074
   45  C   1.07427   1.10222   1.07858   1.02862
   46  C   1.07440   1.07854   1.02510   1.09871
   47  C   1.07422   1.10574   1.07961   1.03120
   48  C   1.07554   1.03188   1.10238   1.08061
   49  C   1.08747   0.97292   1.04850   0.94796
   50  C   1.08858   1.04661   0.96793   0.93886
   51  C   1.08939   0.94076   0.96786   1.04970
   52  C   1.08821   1.04913   0.94533   0.97035
   53  C   1.08978   0.93473   0.96483   1.04764
   54  C   1.08932   1.04894   0.93982   0.96697
   55  C   1.08740   0.97304   1.04827   0.94783
   56  C   1.08877   1.04724   0.96772   0.93903
   57  C   1.08988   0.96531   0.93578   1.04834
   58  C   1.08703   1.04780   0.97420   0.94913
   59  C   1.08928   0.93959   1.04863   0.96679
   60  C   1.08976   0.96575   0.93673   1.04857
   61  C   1.08785   0.94733   1.04916   0.97163
   62  C   1.08852   1.04889   0.94365   0.96922
   63  C   1.08758   0.97161   1.04682   0.94461
   64  C   1.08834   0.96893   1.04678   0.94053
   65  C   1.08942   0.94037   0.96756   1.04959
   66  C   1.08979   0.93556   0.96522   1.04806
   67  C   1.08925   1.04886   0.94002   0.96708
   68  C   1.08935   0.96744   0.94025   1.04942
   69  C   1.08815   0.94533   1.04901   0.97053
   70  C   1.08755   1.04761   0.97220   0.94602
   71  C   1.08897   0.94128   1.04881   0.96780
   72  C   1.08926   0.96835   0.94195   1.05001
   73  C   1.06981   1.01456   1.02321   1.09480
   74  C   1.06750   1.02940   1.01607   1.12233
   75  C   1.05952   1.23295   1.02010   1.05285
   76  C   1.06439   1.03680   1.15279   1.01632
   77  C   1.06055   1.20509   1.01896   1.04757
   78  C   1.06022   1.04898   1.20818   1.01821
   79  C   1.07075   1.01436   1.02097   1.08559
   80  C   1.06557   1.03388   1.01658   1.14199
   81  C   1.05958   1.01990   1.22843   1.05240
   82  C   1.07317   1.01585   1.01362   1.06324
   83  C   1.06096   1.19681   1.04661   1.01769
   84  C   1.05956   1.01964   1.22605   1.05206
   85  C   1.06588   1.13584   1.03298   1.01573
   86  C   1.06331   1.03970   1.16546   1.01667
   87  C   1.07171   1.01445   1.01987   1.07998
   88  C   1.06844   1.01554   1.02759   1.11306
   89  C   1.05929   1.22926   1.01969   1.05231
   90  C   1.05980   1.21627   1.01938   1.04972
   91  C   1.06066   1.04742   1.20107   1.01798
   92  C   1.05940   1.01925   1.22042   1.05054
   93  C   1.06497   1.14672   1.03543   1.01618
   94  C   1.07105   1.02092   1.01437   1.08452
   95  C   1.06164   1.18714   1.04450   1.01741
   96  C   1.05913   1.01975   1.23093   1.05240
   97  C   1.06244   0.93835   0.99170   0.95684
   98  C   1.05972   1.01582   0.93887   0.96608
   99  C   1.04111   1.02880   0.95112   1.17180
  100  C   1.05674   1.04022   0.97560   0.94167
  101  C   1.04876   1.00250   0.94482   1.10824
  102  C   1.04791   1.11345   1.00500   0.94601
  103  C   1.06315   0.93802   0.98563   0.95459
  104  C   1.05779   1.03229   0.93984   0.97233
  105  C   1.04263   0.94923   1.02341   1.15837
  106  C   1.06456   0.97293   0.93744   0.95019
  107  C   1.05001   0.99790   1.09599   0.94478
  108  C   1.04348   0.94863   1.02038   1.15104
  109  C   1.05865   0.96912   1.02377   0.94063
  110  C   1.05506   1.05414   0.98106   0.94237
  111  C   1.06321   0.93767   0.98489   0.95470
  112  C   1.06045   0.93865   1.00901   0.96374
  113  C   1.04293   1.02220   0.94947   1.15635
  114  C   1.04671   1.00947   0.94625   1.12578
  115  C   1.04930   1.10203   1.00026   0.94514
  116  C   1.04596   0.94731   1.01176   1.13173
  117  C   1.05737   0.97352   1.03483   0.94115
  118  C   1.06302   0.98664   0.93792   0.95525
  119  C   1.05180   0.99200   1.08138   0.94398
  120  C   1.04288   0.94983   1.02254   1.15778
  121  C   1.07412   0.90912   0.87709   0.93788
  122  C   1.07212   0.88248   0.90895   0.94213
  123  C   1.06711   0.94214   0.91944   0.90619
  124  C   1.07282   0.88769   0.93454   0.91546
  125  C   1.06897   0.94284   0.91521   0.89723
  126  C   1.07125   0.88976   0.93541   0.91407
  127  C   1.07417   0.90850   0.87631   0.93856
  128  C   1.07206   0.88231   0.90892   0.94103
  129  C   1.06678   0.92089   0.94393   0.90899
  130  C   1.07440   0.87578   0.90835   0.93947
  131  C   1.07121   0.93373   0.89522   0.91832
  132  C   1.06783   0.91786   0.94260   0.90284
  133  C   1.07317   0.93458   0.88667   0.91533
  134  C   1.07202   0.89390   0.93364   0.91885
  135  C   1.07352   0.90783   0.87765   0.94120
  136  C   1.07269   0.90834   0.88026   0.94135
  137  C   1.06860   0.94032   0.91564   0.89806
  138  C   1.06823   0.94296   0.91691   0.90089
  139  C   1.07144   0.89055   0.93471   0.91508
  140  C   1.06983   0.91328   0.93896   0.89229
  141  C   1.07318   0.93559   0.88314   0.91246
  142  C   1.07389   0.87671   0.90805   0.93975
  143  C   1.07183   0.93424   0.89115   0.91629
  144  C   1.06864   0.91569   0.93954   0.89796
  145  C   1.07557   0.84228   1.00488   0.89768
  146  C   1.07621   1.00355   0.84080   0.88932
  147  C   1.07513   0.91164   0.84393   1.00741
  148  C   1.07417   1.00617   0.91288   0.84283
  149  C   1.07606   0.89705   0.84123   1.00499
  150  C   1.07398   1.00700   0.91802   0.84362
  151  C   1.07574   0.84226   1.00467   0.89543
  152  C   1.07611   1.00411   0.84085   0.89246
  153  C   1.07565   0.84263   0.90342   1.00596
  154  C   1.07584   1.00432   0.84281   0.89301
  155  C   1.07316   0.92296   1.00697   0.84408
  156  C   1.07561   0.84261   0.90446   1.00617
  157  C   1.07421   0.91162   1.00597   0.84286
  158  C   1.07347   1.00648   0.91875   0.84343
  159  C   1.07602   0.84195   1.00360   0.88984
  160  C   1.07612   0.84111   1.00360   0.89010
  161  C   1.07510   0.91173   0.84361   1.00735
  162  C   1.07592   0.89972   0.84173   1.00548
  163  C   1.07374   1.00693   0.91916   0.84362
  164  C   1.07513   0.84301   0.91048   1.00707
  165  C   1.07469   0.90804   1.00580   0.84235
  166  C   1.07592   1.00416   0.84208   0.89258
  167  C   1.07367   0.91861   1.00668   0.84348
  168  C   1.07483   0.84404   0.91506   1.00784
  169  C   1.03651   0.97346   1.02033   1.18386
  170  C   1.03689   1.02293   0.97608   1.18591
  171  C   1.04661   1.14950   0.98455   1.01930
  172  C   1.03652   1.02795   1.19584   0.97574
  173  C   1.04081   1.17806   0.98136   1.02604
  174  C   1.04053   1.02718   1.18150   0.97967
  175  C   1.03671   0.97324   1.01867   1.18062
  176  C   1.03716   1.02490   0.97681   1.18815
  177  C   1.04480   0.98397   1.15887   1.02183
  178  C   1.03722   1.01474   0.97237   1.17294
  179  C   1.03915   1.18830   1.02855   0.97840
  180  C   1.04407   0.98331   1.16291   1.02288
  181  C   1.03598   1.19621   1.02699   0.97482
  182  C   1.03684   1.02915   1.19680   0.97634
  183  C   1.03689   0.97365   1.01753   1.17787
  184  C   1.03673   0.97530   1.02209   1.18526
  185  C   1.04489   1.15903   0.98332   1.02188
  186  C   1.04215   1.17215   0.98234   1.02495
  187  C   1.03967   1.02798   1.18558   0.97903
  188  C   1.04263   0.98192   1.17076   1.02476
  189  C   1.03652   1.19425   1.02704   0.97566
  190  C   1.03679   1.01836   0.97344   1.17970
  191  C   1.03838   1.19086   1.02867   0.97777
  192  C   1.04523   0.98343   1.15744   1.02143
  193  C   1.04072   1.04718   1.14497   0.98473
  194  C   1.04177   1.13994   1.04862   0.98238
  195  C   1.03698   0.98920   1.04683   1.16689
  196  C   1.03802   1.15810   0.98418   1.04857
  197  C   1.03528   0.98931   1.04259   1.17048
  198  C   1.04128   1.13850   0.97974   1.04829
  199  C   1.04075   1.04801   1.14571   0.98448
  200  C   1.04199   1.13762   1.04760   0.98241
  201  C   1.03608   1.04602   0.98837   1.16920
  202  C   1.03917   1.15555   1.04806   0.98688
  203  C   1.04129   0.98101   1.14102   1.04912
  204  C   1.03578   1.04499   0.98885   1.17008
  205  C   1.03868   0.98346   1.15475   1.04889
  206  C   1.03809   1.15920   0.98498   1.04890
  207  C   1.04114   1.04943   1.14427   0.98287
  208  C   1.04221   1.04873   1.13708   0.98137
  209  C   1.03636   0.99004   1.04500   1.16870
  210  C   1.03566   0.98949   1.04417   1.17052
  211  C   1.04045   1.14454   0.98128   1.04886
  212  C   1.03551   1.04264   0.99005   1.17025
  213  C   1.03963   0.98157   1.14798   1.04859
  214  C   1.03981   1.15163   1.04806   0.98596
  215  C   1.04109   0.98077   1.14139   1.04896
  216  C   1.03617   1.04495   0.98995   1.16942
  217  C   1.05741   0.85435   0.89926   1.02681
  218  C   1.06253   0.89485   0.85339   0.98992
  219  C   1.07857   0.87010   0.85866   0.87571
  220  C   1.06533   0.88883   0.96209   0.85599
  221  C   1.07434   0.89926   0.85575   0.88062
  222  C   1.07386   0.87971   0.90020   0.85789
  223  C   1.05619   0.85407   0.90094   1.03708
  224  C   1.06512   0.89137   0.85400   0.96911
  225  C   1.07801   0.85754   0.87327   0.87641
  226  C   1.05300   0.90514   0.85395   1.06298
  227  C   1.07190   0.91322   0.88149   0.85773
  228  C   1.07749   0.85756   0.87673   0.87686
  229  C   1.06280   0.98116   0.89170   0.85569
  230  C   1.06708   0.88664   0.94806   0.85657
  231  C   1.05610   0.85346   0.90234   1.03981
  232  C   1.06104   0.85365   0.89643   1.00100
  233  C   1.07768   0.87556   0.85835   0.87643
  234  C   1.07590   0.88790   0.85636   0.87871
  235  C   1.07270   0.88086   0.90801   0.85766
  236  C   1.07603   0.85758   0.88626   0.87798
  237  C   1.06468   0.96804   0.88999   0.85562
  238  C   1.05635   0.90133   0.85388   1.03675
  239  C   1.07050   0.92378   0.88314   0.85714
  240  C   1.07774   0.85862   0.87505   0.87620
  241  C   1.05641   1.00986   0.95691   1.01469
  242  C   1.05479   0.95983   1.01711   1.02396
  243  C   1.05958   1.00516   1.00255   0.95398
  244  C   1.05822   0.95401   1.01128   1.00755
  245  C   1.05674   1.01657   1.01171   0.95696
  246  C   1.05909   0.95352   1.01032   1.00745
  247  C   1.05606   1.01093   0.95768   1.01615
  248  C   1.05563   0.95835   1.01426   1.02011
  249  C   1.05793   1.00777   1.01170   0.95592
  250  C   1.05538   0.95904   1.01305   1.01878
  251  C   1.05900   1.01250   0.95368   1.00911
  252  C   1.05812   1.00739   1.01094   0.95536
  253  C   1.05798   1.01122   0.95421   1.00734
  254  C   1.05852   0.95379   1.01226   1.00846
  255  C   1.05457   1.01688   0.96030   1.02361
  256  C   1.05485   1.01656   0.95958   1.02308
  257  C   1.05945   1.00624   1.00372   0.95375
  258  C   1.05738   1.01400   1.00962   0.95636
  259  C   1.05900   0.95359   1.01112   1.00803
  260  C   1.05914   1.00503   1.00776   0.95381
  261  C   1.05778   1.01164   0.95453   1.00783
  262  C   1.05537   0.95881   1.01364   1.01945
  263  C   1.05874   1.01184   0.95372   1.00844
  264  C   1.06006   1.00217   1.00437   0.95316
  265  C   1.07550   0.98030   0.82507   0.97629
  266  C   1.07733   0.82120   0.97691   0.96045
  267  C   1.07956   0.91814   0.96952   0.80569
  268  C   1.07680   0.81973   0.95832   0.97799
  269  C   1.07987   0.92776   0.97150   0.81081
  270  C   1.07893   0.81136   0.93292   0.97341
  271  C   1.07531   0.98048   0.82579   0.97869
  272  C   1.07784   0.81931   0.97620   0.95423
  273  C   1.08032   0.96902   0.91612   0.80606
  274  C   1.07457   0.82750   0.98152   0.98650
  275  C   1.07850   0.93838   0.81336   0.97452
  276  C   1.08011   0.96983   0.91894   0.80687
  277  C   1.07617   0.96528   0.82171   0.97918
  278  C   1.07718   0.81819   0.95348   0.97725
  279  C   1.07548   0.97995   0.82553   0.97853
  280  C   1.07691   0.97780   0.82212   0.96482
  281  C   1.07950   0.92158   0.97060   0.80708
  282  C   1.08000   0.92372   0.97074   0.80918
  283  C   1.07865   0.81264   0.93649   0.97414
  284  C   1.07923   0.97200   0.92742   0.80947
  285  C   1.07681   0.95952   0.82013   0.97806
  286  C   1.07551   0.82542   0.98012   0.97780
  287  C   1.07810   0.94325   0.81495   0.97539
  288  C   1.07919   0.97093   0.92297   0.80729
  289  H   0.81610
  290  H   0.81839
  291  H   0.81782
  292  H   0.81482
  293  H   0.81822
  294  H   0.81458
  295  H   0.81626
  296  H   0.81786
  297  H   0.81848
  298  H   0.81649
  299  H   0.81408
  300  H   0.81793
  301  H   0.81503
  302  H   0.81464
  303  H   0.81769
  304  H   0.81800
  305  H   0.81691
  306  H   0.81824
  307  H   0.81434
  308  H   0.81628
  309  H   0.81517
  310  H   0.81695
  311  H   0.81439
  312  H   0.81660
  313  H   0.83308
  314  H   0.83352
  315  H   0.83237
  316  H   0.83093
  317  H   0.83226
  318  H   0.83128
  319  H   0.83335
  320  H   0.83308
  321  H   0.83199
  322  H   0.83388
  323  H   0.83067
  324  H   0.83209
  325  H   0.83095
  326  H   0.83045
  327  H   0.83400
  328  H   0.83343
  329  H   0.83233
  330  H   0.83211
  331  H   0.83102
  332  H   0.83215
  333  H   0.83137
  334  H   0.83367
  335  H   0.83089
  336  H   0.83234
  337  H   0.82437
  338  H   0.82130
  339  H   0.81245
  340  H   0.82096
  341  H   0.81537
  342  H   0.81611
  343  H   0.82475
  344  H   0.82029
  345  H   0.81287
  346  H   0.82589
  347  H   0.81737
  348  H   0.81335
  349  H   0.82235
  350  H   0.82018
  351  H   0.82421
  352  H   0.82207
  353  H   0.81331
  354  H   0.81447
  355  H   0.81689
  356  H   0.81464
  357  H   0.82119
  358  H   0.82445
  359  H   0.81812
  360  H   0.81336

 **********************
 *                    *
 * JOB ENDED NORMALLY *
 *                    *
 **********************



 TOTAL JOB TIME:           573.80 SECONDS

 == MOPAC DONE ==
